 written on 31Mar2021 at 22:50:02 
          10
         617
    4    3    2    2    2    1    2    2    1    1    2    3    2    2    2
    3    6    2    2    2    1    2    2    1    1    2    2    1    1    1
    2    2    1    1    1    1    2    2    1    1    1    1    1    2    2
    1    1    1    1    1    1    2    6    2    2    2    2    2    2    2
    6    2    2    3    1    1    1    3    2    1    1    1    1    2    2
    1    1    1    1    1    2    2    1    1    1    1    1    1    2    3
    1    1    1    1    1    1    1    3    1    1    1    1    1    1    1
    1    2    1    1    1    1    1    1    1    2    2    1    1    1    1
    1    1    2    3    2    2    2    3    2    1    2    2    1    1    1
    1    2    4    1    1    1    1    1    1    1    4    1    1    1    1
    1    1    1    1    2    1    1    1    1    1    1    1    2    1    1
    1    1    1    1    1    1    2    1    1    1    1    1    1    1    2
    1    1    1    1    1    1    1    1    2    1    1    1    1    1    2
    2    1    1    2    4    3    2    1    1    2    2    1    1    1    1
    1    2    1    1    1    1    1    1    1    1    2    1    1    1    1
    1    1    1    2    1    1    1    1    1    1    1    1    2    1    1
    1    1    1    1    1    2    1    1    1    1    1    1    1    1    3
    1    1    1    1    1    1    1    3    2    1    1    1    1    2    2
    1    2    2    2    2    1    1    1    2    2    1    1    1    1    1
    1    2    2    1    1    1    1    1    1    1    2    1    1    1    1
    1    1    1    1    2    1    1    1    1    1    1    1    2    1    1
    1    1    1    1    1    1    2    1    1    1    1    1    1    1    2
    2    1    1    1    1    1    1    2    2    1    1    1    2    2    2
    2    1    2    2    1    1    1    1    2    3    1    1    1    1    1
    1    1    3    1    1    1    1    1    1    1    1    2    1    1    1
    1    1    1    1    2    1    1    1    1    1    1    1    1    2    1
    1    1    1    1    1    1    2    1    1    1    1    1    1    1    1
    2    1    1    1    1    1    2    2    1    1    2    3    4    2    1
    1    2    2    1    1    1    1    1    2    1    1    1    1    1    1
    1    1    2    1    1    1    1    1    1    1    2    1    1    1    1
    1    1    1    1    2    1    1    1    1    1    1    1    2    1    1
    1    1    1    1    1    1    4    1    1    1    1    1    1    1    4
    2    1    1    1    1    2    2    1    2    3    2    2    2    3    2
    1    1    1    1    1    1    2    2    1    1    1    1    1    1    1
    2    1    1    1    1    1    1    1    1    3    1    1    1    1    1
    1    1    3    2    1    1    1    1    1    1    2    2    1    1    1
    1    1    2    2    1    1    1    1    2    3    1    1    1    3    2
    2    6    2    2    2    2    2    2    2    6    2    1    1    1    1
    1    1    2    2    1    1    1    1    1    2    2    1    1    1    1
    2    2    1    1    1    2    2    1    1    2    2    1    2    2    2
    6    3    2    2    2    3    2    1    1    2    2    1    2    2    2
    3    4
   -6    2    2    1    1    0.001620   -0.000003
   -6    2    2    2    1   -0.000506    0.000770
   -6    2    2    3    1   -0.000257    0.000027
   -6    2    2    4    1   -0.000748    0.000403
   -6    2    2    5    1    0.000145    0.000048
   -6    2    2    6    1   -0.000827   -0.000803
   -6    2    2    7    1   -0.000054   -0.001157
   -6    2    2    8    1   -0.000190   -0.000031
   -6    2    2    9    1   -0.000244   -0.000396
   -6    2    2   10    1   -0.000161   -0.000045
   -6    2    2    1    2   -0.000393   -0.000597
   -6    2    2    2    2    0.001632   -0.000003
   -6    2    2    3    2   -0.000638   -0.000789
   -6    2    2    4    2   -0.000315   -0.000163
   -6    2    2    5    2   -0.000247   -0.000815
   -6    2    2    6    2    0.000061   -0.000255
   -6    2    2    7    2    0.000144   -0.000103
   -6    2    2    8    2   -0.000373   -0.000952
   -6    2    2    9    2   -0.000586    0.001208
   -6    2    2   10    2    0.000612    0.001952
   -6    2    2    1    3    0.000675    0.000094
   -6    2    2    2    3   -0.000689    0.000815
   -6    2    2    3    3    0.001614   -0.000000
   -6    2    2    4    3   -0.000386    0.000150
   -6    2    2    5    3    0.000680    0.000285
   -6    2    2    6    3   -0.000057   -0.000071
   -6    2    2    7    3    0.000030   -0.000459
   -6    2    2    8    3   -0.000133   -0.000044
   -6    2    2    9    3    0.000216    0.000462
   -6    2    2   10    3   -0.001044   -0.000425
   -6    2    2    1    4   -0.000563   -0.000294
   -6    2    2    2    4   -0.000116    0.000058
   -6    2    2    3    4    0.000352    0.000131
   -6    2    2    4    4    0.001546    0.000004
   -6    2    2    5    4   -0.000763   -0.000731
   -6    2    2    6    4   -0.000058   -0.000141
   -6    2    2    7    4   -0.000180    0.000395
   -6    2    2    8    4    0.001400    0.001188
   -6    2    2    9    4    0.000018    0.000293
   -6    2    2   10    4   -0.000494   -0.000459
   -6    2    2    1    5    0.000129   -0.000027
   -6    2    2    2    5    0.000028   -0.000138
   -6    2    2    3    5   -0.001213    0.000528
   -6    2    2    4    5   -0.000283    0.000273
   -6    2    2    5    5    0.001551    0.000004
   -6    2    2    6    5    0.000759    0.000390
   -6    2    2    7    5   -0.000084   -0.000229
   -6    2    2    8    5   -0.000312    0.000025
   -6    2    2    9    5   -0.000517   -0.000462
   -6    2    2   10    5   -0.000338   -0.000007
   -6    2    2    1    6   -0.000440    0.000428
   -6    2    2    2    6   -0.000130   -0.000668
   -6    2    2    3    6   -0.000079    0.000099
   -6    2    2    4    6   -0.000057    0.000152
   -6    2    2    5    6    0.000363   -0.000205
   -6    2    2    6    6    0.001614    0.000000
   -6    2    2    7    6    0.000597    0.000578
   -6    2    2    8    6   -0.000094    0.000064
   -6    2    2    9    6   -0.000125   -0.000035
   -6    2    2   10    6    0.000597   -0.000315
   -6    2    2    1    7    0.000040   -0.000676
   -6    2    2    2    7    0.000021    0.000012
   -6    2    2    3    7   -0.000111   -0.002060
   -6    2    2    4    7    0.000016    0.000030
   -6    2    2    5    7   -0.000079    0.000214
   -6    2    2    6    7    0.000909   -0.000841
   -6    2    2    7    7    0.001344   -0.000003
   -6    2    2    8    7   -0.000186    0.000664
   -6    2    2    9    7    0.000706   -0.000389
   -6    2    2   10    7   -0.000308    0.000892
   -6    2    2    1    8   -0.000189    0.000042
   -6    2    2    2    8   -0.000378    0.000995
   -6    2    2    3    8   -0.000331    0.000104
   -6    2    2    4    8    0.000529   -0.000454
   -6    2    2    5    8   -0.000303   -0.000024
   -6    2    2    6    8    0.000342    0.000210
   -6    2    2    7    8    0.000292    0.001076
   -6    2    2    8    8    0.001547    0.000003
   -6    2    2    9    8   -0.000233   -0.000240
   -6    2    2   10    8   -0.000339   -0.000000
   -6    2    2    1    9    0.000202   -0.000359
   -6    2    2    2    9    0.000325    0.000688
   -6    2    2    3    9    0.000311   -0.000662
   -6    2    2    4    9    0.000020   -0.000303
   -6    2    2    5    9   -0.001362    0.001227
   -6    2    2    6    9   -0.000147    0.000044
   -6    2    2    7    9    0.000261    0.000133
   -6    2    2    8    9   -0.000684    0.000717
   -6    2    2    9    9    0.001552    0.000002
   -6    2    2   10    9    0.000174   -0.000176
   -6    2    2    1   10   -0.000405    0.000109
   -6    2    2    2   10   -0.000149    0.000454
   -6    2    2    3   10   -0.001042    0.000421
   -6    2    2    4   10    0.000812   -0.000777
   -6    2    2    5   10   -0.000237    0.000009
   -6    2    2    6   10   -0.001005   -0.000545
   -6    2    2    7   10   -0.000243   -0.000697
   -6    2    2    8   10    0.000565   -0.000035
   -6    2    2    9   10    0.000200    0.000192
   -6    2    2   10   10    0.001335   -0.000004
   -5   -1    3    1    1    0.000276    0.000006
   -5   -1    3    2    1    0.000068   -0.000115
   -5   -1    3    3    1   -0.000167    0.000022
   -5   -1    3    4    1    0.000393   -0.000201
   -5   -1    3    5    1    0.000025    0.000015
   -5   -1    3    6    1    0.000051    0.000048
   -5   -1    3    7    1    0.000059    0.000872
   -5   -1    3    8    1   -0.001425   -0.000283
   -5   -1    3    9    1    0.000038    0.000019
   -5   -1    3   10    1   -0.000113   -0.000033
   -5   -1    3    1    2    0.000128    0.000199
   -5   -1    3    2    2    0.000272    0.000002
   -5   -1    3    3    2    0.000066    0.000051
   -5   -1    3    4    2    0.001820    0.001008
   -5   -1    3    5    2    0.000008    0.000032
   -5   -1    3    6    2    0.000015   -0.000101
   -5   -1    3    7    2   -0.000331    0.000248
   -5   -1    3    8    2    0.000270    0.000668
   -5   -1    3    9    2    0.000476   -0.001030
   -5   -1    3   10    2   -0.000079   -0.000239
   -5   -1    3    1    3   -0.000011    0.000007
   -5   -1    3    2    3    0.000425   -0.000517
   -5   -1    3    3    3    0.000292    0.000004
   -5   -1    3    4    3   -0.000025    0.000003
   -5   -1    3    5    3   -0.000229   -0.000098
   -5   -1    3    6    3    0.000452    0.000561
   -5   -1    3    7    3    0.000012   -0.000216
   -5   -1    3    8    3   -0.000154   -0.000043
   -5   -1    3    9    3    0.000132    0.000280
   -5   -1    3   10    3    0.000675    0.000271
   -5   -1    3    1    4    0.000735    0.000405
   -5   -1    3    2    4   -0.000164    0.000088
   -5   -1    3    3    4    0.000236    0.000106
   -5   -1    3    4    4    0.000076   -0.000004
   -5   -1    3    5    4   -0.000590   -0.000556
   -5   -1    3    6    4   -0.000442   -0.001335
   -5   -1    3    7    4    0.000162   -0.000350
   -5   -1    3    8    4    0.000948    0.000807
   -5   -1    3    9    4   -0.000001    0.000004
   -5   -1    3   10    4   -0.000260   -0.000266
   -5   -1    3    1    5   -0.001707    0.000488
   -5   -1    3    2    5    0.000006   -0.000028
   -5   -1    3    3    5    0.001079   -0.000455
   -5   -1    3    4    5   -0.000189    0.000188
   -5   -1    3    5    5    0.000079   -0.000006
   -5   -1    3    6    5   -0.000347   -0.000186
   -5   -1    3    7    5    0.000653    0.001858
   -5   -1    3    8    5    0.000015   -0.000000
   -5   -1    3    9    5   -0.000489   -0.000431
   -5   -1    3   10    5   -0.000211    0.000006
   -5   -1    3    1    6    0.000323   -0.000327
   -5   -1    3    2    6    0.000009    0.000063
   -5   -1    3    3    6    0.000610   -0.000739
   -5   -1    3    4    6    0.000359   -0.001118
   -5   -1    3    5    6   -0.000647    0.000339
   -5   -1    3    6    6    0.000293    0.000002
   -5   -1    3    7    6   -0.000109   -0.000105
   -5   -1    3    8    6    0.000192   -0.000123
   -5   -1    3    9    6    0.001727    0.000454
   -5   -1    3   10    6    0.000120   -0.000061
   -5   -1    3    1    7    0.000008   -0.000171
   -5   -1    3    2    7    0.000648    0.000474
   -5   -1    3    3    7    0.000024    0.000312
   -5   -1    3    4    7   -0.000071   -0.000127
   -5   -1    3    5    7   -0.000458    0.001344
   -5   -1    3    6    7   -0.000400    0.000379
   -5   -1    3    7    7   -0.000097    0.000002
   -5   -1    3    8    7   -0.000106    0.000392
   -5   -1    3    9    7   -0.000331    0.000171
   -5   -1    3   10    7    0.000138   -0.000424
   -5   -1    3    1    8    0.001192   -0.000246
   -5   -1    3    2    8    0.000163   -0.000417
   -5   -1    3    3    8    0.001961   -0.000660
   -5   -1    3    4    8    0.000495   -0.000425
   -5   -1    3    5    8   -0.000005   -0.000005
   -5   -1    3    6    8   -0.000235   -0.000152
   -5   -1    3    7    8   -0.000088   -0.000307
   -5   -1    3    8    8    0.000025   -0.000004
   -5   -1    3    9    8   -0.000332   -0.000344
   -5   -1    3   10    8   -0.000069   -0.000011
   -5   -1    3    1    9    0.000059   -0.000105
   -5   -1    3    2    9   -0.000081   -0.000164
   -5   -1    3    3    9   -0.000221    0.000471
   -5   -1    3    4    9   -0.000008    0.000014
   -5   -1    3    5    9   -0.000924    0.000832
   -5   -1    3    6    9   -0.000021    0.000004
   -5   -1    3    7    9   -0.000702   -0.000382
   -5   -1    3    8    9   -0.000470    0.000498
   -5   -1    3    9    9    0.000027   -0.000002
   -5   -1    3   10    9    0.001093   -0.001015
   -5   -1    3    1   10    0.001311   -0.000356
   -5   -1    3    2   10   -0.000070    0.000221
   -5   -1    3    3   10   -0.000018    0.000012
   -5   -1    3    4   10   -0.000254    0.000251
   -5   -1    3    5   10    0.000736    0.000015
   -5   -1    3    6   10    0.000771    0.000410
   -5   -1    3    7   10    0.000043    0.000091
   -5   -1    3    8   10    0.000413   -0.000024
   -5   -1    3    9   10   -0.001448   -0.001347
   -5   -1    3   10   10   -0.000094    0.000005
   -5    0    2    1    1   -0.001469   -0.000006
   -5    0    2    2    1   -0.000823    0.001283
   -5    0    2    3    1    0.001167   -0.000140
   -5    0    2    4    1    0.000363   -0.000201
   -5    0    2    5    1   -0.000209   -0.000067
   -5    0    2    6    1    0.000924    0.000884
   -5    0    2    7    1   -0.000088   -0.001624
   -5    0    2    8    1    0.000435    0.000091
   -5    0    2    9    1    0.000071    0.000118
   -5    0    2   10    1   -0.000331   -0.000091
   -5    0    2    1    2   -0.000044   -0.000068
   -5    0    2    2    2   -0.001466   -0.000014
   -5    0    2    3    2    0.000044    0.000053
   -5    0    2    4    2    0.000167    0.000100
   -5    0    2    5    2    0.000178    0.000563
   -5    0    2    6    2   -0.000077    0.000452
   -5    0    2    7    2   -0.000040    0.000030
   -5    0    2    8    2    0.000012    0.000019
   -5    0    2    9    2   -0.000142    0.000298
   -5    0    2   10    2    0.000394    0.001238
   -5    0    2    1    3   -0.000156   -0.000001
   -5    0    2    2    3   -0.000510    0.000602
   -5    0    2    3    3   -0.001647   -0.000005
   -5    0    2    4    3   -0.001000    0.000385
   -5    0    2    5    3   -0.000093   -0.000033
   -5    0    2    6    3   -0.000249   -0.000295
   -5    0    2    7    3    0.000001    0.000233
   -5    0    2    8    3    0.000143    0.000056
   -5    0    2    9    3   -0.000417   -0.000911
   -5    0    2   10    3    0.001252    0.000517
   -5    0    2    1    4    0.000255    0.000140
   -5    0    2    2    4   -0.000493    0.000276
   -5    0    2    3    4   -0.000225   -0.000076
   -5    0    2    4    4   -0.000002   -0.000010
   -5    0    2    5    4   -0.000383   -0.000377
   -5    0    2    6    4    0.000166    0.000517
   -5    0    2    7    4    0.000072   -0.000188
   -5    0    2    8    4    0.000314    0.000234
   -5    0    2    9    4   -0.000006    0.000209
   -5    0    2   10    4    0.000571    0.000543
   -5    0    2    1    5   -0.000390    0.000115
   -5    0    2    2    5    0.000716   -0.002351
   -5    0    2    3    5    0.000009   -0.000005
   -5    0    2    4    5    0.000374   -0.000355
   -5    0    2    5    5   -0.000001   -0.000008
   -5    0    2    6    5   -0.000320   -0.000179
   -5    0    2    7    5    0.000166    0.000482
   -5    0    2    8    5    0.000566   -0.000040
   -5    0    2    9    5   -0.000025   -0.000021
   -5    0    2   10    5    0.000153    0.000001
   -5    0    2    1    6   -0.000177    0.000171
   -5    0    2    2    6   -0.000075   -0.000480
   -5    0    2    3    6   -0.000425    0.000518
   -5    0    2    4    6    0.000085   -0.000220
   -5    0    2    5    6    0.000498   -0.000271
   -5    0    2    6    6   -0.001648   -0.000002
   -5    0    2    7    6   -0.000158   -0.000118
   -5    0    2    8    6   -0.000590    0.000362
   -5    0    2    9    6   -0.001323   -0.000340
   -5    0    2   10    6    0.000451   -0.000252
   -5    0    2    1    7   -0.000194    0.002931
   -5    0    2    2    7    0.000531    0.000380
   -5    0    2    3    7   -0.000029   -0.000564
   -5    0    2    4    7    0.000406    0.000897
   -5    0    2    5    7   -0.000438    0.001262
   -5    0    2    6    7    0.000044   -0.000038
   -5    0    2    7    7   -0.000847   -0.000010
   -5    0    2    8    7    0.000071   -0.000207
   -5    0    2    9    7    0.000648   -0.000342
   -5    0    2   10    7   -0.000679    0.001981
   -5    0    2    1    8   -0.000078    0.000008
   -5    0    2    2    8    0.000058   -0.000140
   -5    0    2    3    8   -0.001096    0.000372
   -5    0    2    4    8    0.000021   -0.000023
   -5    0    2    5    8   -0.000205   -0.000027
   -5    0    2    6    8    0.001402    0.000880
   -5    0    2    7    8    0.000119    0.000466
   -5    0    2    8    8   -0.000456    0.000002
   -5    0    2    9    8    0.000003    0.000005
   -5    0    2   10    8    0.000784    0.000044
   -5    0    2    1    9   -0.000672    0.001093
   -5    0    2    2    9   -0.000315   -0.000694
   -5    0    2    3    9    0.000348   -0.000731
   -5    0    2    4    9   -0.000035    0.000563
   -5    0    2    5    9   -0.000274    0.000278
   -5    0    2    6    9    0.000186   -0.000042
   -5    0    2    7    9    0.000619    0.000339
   -5    0    2    8    9   -0.000145    0.000183
   -5    0    2    9    9   -0.000456    0.000001
   -5    0    2   10    9   -0.000581    0.000530
   -5    0    2    1   10   -0.001218    0.000323
   -5    0    2    2   10    0.000801   -0.002470
   -5    0    2    3   10   -0.001102    0.000450
   -5    0    2    4   10    0.000614   -0.000578
   -5    0    2    5   10   -0.000223    0.000003
   -5    0    2    6   10   -0.000402   -0.000233
   -5    0    2    7   10   -0.000079   -0.000204
   -5    0    2    8   10   -0.001353    0.000086
   -5    0    2    9   10    0.000034    0.000034
   -5    0    2   10   10   -0.000846   -0.000002
   -5    0    3    1    1   -0.001664    0.000010
   -5    0    3    2    1    0.000672   -0.001028
   -5    0    3    3    1    0.000473   -0.000066
   -5    0    3    4    1    0.001079   -0.000591
   -5    0    3    5    1   -0.000205   -0.000058
   -5    0    3    6    1    0.000260    0.000232
   -5    0    3    7    1   -0.000016   -0.000427
   -5    0    3    8    1    0.000512    0.000103
   -5    0    3    9    1   -0.001016   -0.001638
   -5    0    3   10    1    0.000442    0.000118
   -5    0    3    1    2   -0.000255   -0.000389
   -5    0    3    2    2   -0.001159    0.000004
   -5    0    3    3    2   -0.000299   -0.000348
   -5    0    3    4    2    0.000889    0.000488
   -5    0    3    5    2    0.000374    0.001227
   -5    0    3    6    2   -0.000218    0.001102
   -5    0    3    7    2    0.000686   -0.000510
   -5    0    3    8    2    0.000157    0.000400
   -5    0    3    9    2   -0.000239    0.000515
   -5    0    3   10    2    0.000368    0.001178
   -5    0    3    1    3    0.000450    0.000047
   -5    0    3    2    3   -0.001560    0.001874
   -5    0    3    3    3   -0.001412    0.000003
   -5    0    3    4    3   -0.001890    0.000729
   -5    0    3    5    3   -0.000669   -0.000282
   -5    0    3    6    3    0.000593    0.000739
   -5    0    3    7    3   -0.000160    0.002586
   -5    0    3    8    3   -0.000502   -0.000164
   -5    0    3    9    3   -0.000404   -0.000855
   -5    0    3   10    3   -0.000916   -0.000381
   -5    0    3    1    4   -0.000660   -0.000361
   -5    0    3    2    4    0.000190   -0.000105
   -5    0    3    3    4   -0.000397   -0.000158
   -5    0    3    4    4   -0.000395   -0.000007
   -5    0    3    5    4   -0.000114   -0.000105
   -5    0    3    6    4   -0.000220   -0.000674
   -5    0    3    7    4    0.000046   -0.000102
   -5    0    3    8    4    0.000624    0.000522
   -5    0    3    9    4    0.000022    0.000460
   -5    0    3   10    4   -0.000007   -0.000013
   -5    0    3    1    5    0.001339   -0.000389
   -5    0    3    2    5   -0.000112    0.000402
   -5    0    3    3    5   -0.000330    0.000132
   -5    0    3    4    5   -0.000017    0.000022
   -5    0    3    5    5   -0.000410   -0.000009
   -5    0    3    6    5    0.000682    0.000365
   -5    0    3    7    5   -0.000005   -0.000051
   -5    0    3    8    5   -0.000195    0.000020
   -5    0    3    9    5    0.000016    0.000019
   -5    0    3   10    5    0.001165   -0.000015
   -5    0    3    1    6    0.000040   -0.000038
   -5    0    3    2    6   -0.000351   -0.001830
   -5    0    3    3    6   -0.000161    0.000182
   -5    0    3    4    6    0.000119   -0.000343
   -5    0    3    5    6    0.000383   -0.000198
   -5    0    3    6    6   -0.001107   -0.000005
   -5    0    3    7    6   -0.000007    0.000004
   -5    0    3    8    6   -0.000232    0.000152
   -5    0    3    9    6    0.000177    0.000052
   -5    0    3   10    6   -0.000192    0.000113
   -5    0    3    1    7    0.000037   -0.000565
   -5    0    3    2    7   -0.000221   -0.000165
   -5    0    3    3    7   -0.000066   -0.001284
   -5    0    3    4    7   -0.000070   -0.000141
   -5    0    3    5    7    0.000259   -0.000744
   -5    0    3    6    7    0.001165   -0.001103
   -5    0    3    7    7   -0.000866   -0.000005
   -5    0    3    8    7    0.000208   -0.000759
   -5    0    3    9    7   -0.000685    0.000374
   -5    0    3   10    7    0.000521   -0.001533
   -5    0    3    1    8    0.000189   -0.000051
   -5    0    3    2    8    0.000056   -0.000125
   -5    0    3    3    8    0.000181   -0.000055
   -5    0    3    4    8   -0.000366    0.000312
   -5    0    3    5    8    0.000601    0.000041
   -5    0    3    6    8    0.001158    0.000717
   -5    0    3    7    8    0.000227    0.000820
   -5    0    3    8    8   -0.000001   -0.000007
   -5    0    3    9    8    0.000046    0.000054
   -5    0    3   10    8   -0.001108   -0.000067
   -5    0    3    1    9   -0.000065    0.000118
   -5    0    3    2    9   -0.000193   -0.000407
   -5    0    3    3    9   -0.000124    0.000263
   -5    0    3    4    9    0.000022   -0.000499
   -5    0    3    5    9   -0.000400    0.000366
   -5    0    3    6    9   -0.000757    0.000192
   -5    0    3    7    9    0.000305    0.000174
   -5    0    3    8    9   -0.000316    0.000329
   -5    0    3    9    9   -0.000468   -0.000004
   -5    0    3   10    9   -0.000356    0.000330
   -5    0    3    1   10   -0.001102    0.000298
   -5    0    3    2   10    0.000304   -0.000923
   -5    0    3    3   10    0.000163   -0.000090
   -5    0    3    4   10    0.000010   -0.000000
   -5    0    3    5   10   -0.001079   -0.000013
   -5    0    3    6   10   -0.000280   -0.000154
   -5    0    3    7   10   -0.000151   -0.000404
   -5    0    3    8   10   -0.000238    0.000022
   -5    0    3    9   10    0.000555    0.000521
   -5    0    3   10   10   -0.001339    0.000004
   -5    1    1    1    1    0.001026   -0.000004
   -5    1    1    2    1   -0.000403    0.000617
   -5    1    1    3    1   -0.001008    0.000129
   -5    1    1    4    1    0.000470   -0.000256
   -5    1    1    5    1    0.000345    0.000090
   -5    1    1    6    1    0.000042    0.000033
   -5    1    1    7    1    0.000045    0.000966
   -5    1    1    8    1   -0.000563   -0.000120
   -5    1    1    9    1    0.000403    0.000663
   -5    1    1   10    1   -0.001202   -0.000321
   -5    1    1    1    2   -0.000626   -0.000949
   -5    1    1    2    2    0.001033   -0.000003
   -5    1    1    3    2    0.000396    0.000469
   -5    1    1    4    2   -0.000306   -0.000171
   -5    1    1    5    2    0.000361    0.001223
   -5    1    1    6    2   -0.000101    0.000534
   -5    1    1    7    2    0.000140   -0.000098
   -5    1    1    8    2    0.000160    0.000466
   -5    1    1    9    2    0.000166   -0.000322
   -5    1    1   10    2   -0.000219   -0.000681
   -5    1    1    1    3   -0.000102   -0.000017
   -5    1    1    2    3   -0.000937    0.001133
   -5    1    1    3    3   -0.001322    0.000012
   -5    1    1    4    3    0.001159   -0.000446
   -5    1    1    5    3   -0.000367   -0.000147
   -5    1    1    6    3    0.000282    0.000351
   -5    1    1    7    3   -0.000085    0.001330
   -5    1    1    8    3    0.000361    0.000117
   -5    1    1    9    3    0.000698    0.001469
   -5    1    1   10    3    0.000023   -0.000008
   -5    1    1    1    4    0.000266    0.000133
   -5    1    1    2    4   -0.000521    0.000298
   -5    1    1    3    4    0.000358    0.000142
   -5    1    1    4    4    0.002205    0.000012
   -5    1    1    5    4   -0.000013   -0.000022
   -5    1    1    6    4    0.000115    0.000307
   -5    1    1    7    4    0.000224   -0.000453
   -5    1    1    8    4   -0.000483   -0.000408
   -5    1    1    9    4   -0.000019   -0.000476
   -5    1    1   10    4    0.000375    0.000352
   -5    1    1    1    5   -0.000282    0.000082
   -5    1    1    2    5    0.000546   -0.001775
   -5    1    1    3    5    0.000914   -0.000378
   -5    1    1    4    5   -0.001307    0.001261
   -5    1    1    5    5    0.002205    0.000008
   -5    1    1    6    5    0.000559    0.000300
   -5    1    1    7    5   -0.000065   -0.000179
   -5    1    1    8    5    0.000064    0.000010
   -5    1    1    9    5    0.000662    0.000600
   -5    1    1   10    5   -0.000631    0.000010
   -5    1    1    1    6   -0.000372    0.000356
   -5    1    1    2    6    0.000096    0.000507
   -5    1    1    3    6   -0.000149    0.000167
   -5    1    1    4    6    0.000374   -0.001165
   -5    1    1    5    6   -0.000545    0.000286
   -5    1    1    6    6   -0.001321    0.000011
   -5    1    1    7    6   -0.000811   -0.000754
   -5    1    1    8    6    0.001229   -0.000773
   -5    1    1    9    6    0.000204    0.000055
   -5    1    1   10    6    0.001225   -0.000666
   -5    1    1    1    7   -0.000060    0.001209
   -5    1    1    2    7    0.000754    0.000562
   -5    1    1    3    7    0.000033    0.000521
   -5    1    1    4    7    0.000187    0.000396
   -5    1    1    5    7   -0.000059    0.000165
   -5    1    1    6    7    0.000641   -0.000599
   -5    1    1    7    7    0.001870   -0.000000
   -5    1    1    8    7   -0.000165    0.000616
   -5    1    1    9    7    0.001449   -0.000778
   -5    1    1   10    7   -0.000542    0.001598
   -5    1    1    1    8    0.001661   -0.000342
   -5    1    1    2    8   -0.000483    0.001252
   -5    1    1    3    8    0.000639   -0.000218
   -5    1    1    4    8   -0.000681    0.000576
   -5    1    1    5    8    0.000486    0.000042
   -5    1    1    6    8   -0.001035   -0.000641
   -5    1    1    7    8   -0.000078   -0.000317
   -5    1    1    8    8   -0.000472   -0.000010
   -5    1    1    9    8    0.000144    0.000143
   -5    1    1   10    8    0.001025    0.000061
   -5    1    1    1    9   -0.000144    0.000211
   -5    1    1    2    9    0.000098    0.000212
   -5    1    1    3    9   -0.000342    0.000740
   -5    1    1    4    9   -0.000018    0.000063
   -5    1    1    5    9    0.000462   -0.000419
   -5    1    1    6    9    0.000602   -0.000157
   -5    1    1    7    9    0.000222    0.000096
   -5    1    1    8    9    0.000302   -0.000307
   -5    1    1    9    9   -0.000476   -0.000010
   -5    1    1   10    9    0.000204   -0.000196
   -5    1    1    1   10    0.000527   -0.000137
   -5    1    1    2   10    0.000459   -0.001492
   -5    1    1    3   10   -0.000875    0.000353
   -5    1    1    4   10   -0.000580    0.000521
   -5    1    1    5   10   -0.000298   -0.000007
   -5    1    1    6   10   -0.000562   -0.000295
   -5    1    1    7   10   -0.000551   -0.001631
   -5    1    1    8   10    0.000497   -0.000031
   -5    1    1    9   10   -0.001093   -0.001014
   -5    1    1   10   10    0.001866   -0.000006
   -5    1    2    1    1    0.000306   -0.000014
   -5    1    2    2    1   -0.000322    0.000504
   -5    1    2    3    1   -0.000897    0.000108
   -5    1    2    4    1    0.000044   -0.000031
   -5    1    2    5    1   -0.001350   -0.000389
   -5    1    2    6    1   -0.000009    0.000016
   -5    1    2    7    1    0.000008    0.000020
   -5    1    2    8    1    0.000288    0.000057
   -5    1    2    9    1    0.000160    0.000243
   -5    1    2   10    1    0.000238    0.000060
   -5    1    2    1    2   -0.000101   -0.000146
   -5    1    2    2    2   -0.000330   -0.000007
   -5    1    2    3    2    0.000154    0.000172
   -5    1    2    4    2   -0.000473   -0.000272
   -5    1    2    5    2   -0.000070   -0.000218
   -5    1    2    6    2   -0.000180    0.000910
   -5    1    2    7    2    0.000412   -0.000307
   -5    1    2    8    2   -0.000318   -0.000857
   -5    1    2    9    2    0.000024   -0.000045
   -5    1    2   10    2    0.000025    0.000122
   -5    1    2    1    3   -0.000043    0.000011
   -5    1    2    2    3   -0.000982    0.001167
   -5    1    2    3    3    0.000301   -0.000003
   -5    1    2    4    3    0.001672   -0.000640
   -5    1    2    5    3    0.000562    0.000235
   -5    1    2    6    3   -0.000088   -0.000113
   -5    1    2    7    3   -0.000039    0.000651
   -5    1    2    8    3    0.002634    0.000892
   -5    1    2    9    3    0.000581    0.001266
   -5    1    2   10    3    0.000151    0.000064
   -5    1    2    1    4    0.001059    0.000555
   -5    1    2    2    4   -0.000308    0.000181
   -5    1    2    3    4   -0.000630   -0.000235
   -5    1    2    4    4   -0.001456    0.000006
   -5    1    2    5    4    0.000425    0.000423
   -5    1    2    6    4    0.000402    0.001267
   -5    1    2    7    4   -0.000080    0.000153
   -5    1    2    8    4   -0.000845   -0.000711
   -5    1    2    9    4   -0.000016   -0.000240
   -5    1    2   10    4    0.000577    0.000548
   -5    1    2    1    5   -0.001158    0.000328
   -5    1    2    2    5   -0.000164    0.000512
   -5    1    2    3    5    0.000580   -0.000247
   -5    1    2    4    5    0.000199   -0.000203
   -5    1    2    5    5   -0.001239   -0.000003
   -5    1    2    6    5    0.000029    0.000018
   -5    1    2    7    5   -0.000094   -0.000248
   -5    1    2    8    5   -0.000224    0.000021
   -5    1    2    9    5    0.000836    0.000770
   -5    1    2   10    5   -0.000165   -0.000005
   -5    1    2    1    6    0.000432   -0.000423
   -5    1    2    2    6    0.000007    0.000086
   -5    1    2    3    6    0.000175   -0.000219
   -5    1    2    4    6   -0.000192    0.000586
   -5    1    2    5    6    0.000594   -0.000322
   -5    1    2    6    6   -0.000030   -0.000007
   -5    1    2    7    6   -0.000037   -0.000057
   -5    1    2    8    6   -0.000050    0.000036
   -5    1    2    9    6    0.001176    0.000309
   -5    1    2   10    6    0.000629   -0.000327
   -5    1    2    1    7    0.000002   -0.000293
   -5    1    2    2    7   -0.000309   -0.000218
   -5    1    2    3    7    0.000032    0.000737
   -5    1    2    4    7    0.000274    0.000567
   -5    1    2    5    7    0.000175   -0.000483
   -5    1    2    6    7   -0.000013    0.000032
   -5    1    2    7    7   -0.000908   -0.000003
   -5    1    2    8    7   -0.000068    0.000275
   -5    1    2    9    7   -0.000901    0.000481
   -5    1    2   10    7   -0.000209    0.000706
   -5    1    2    1    8   -0.001351    0.000279
   -5    1    2    2    8    0.000289   -0.000716
   -5    1    2    3    8    0.001155   -0.000384
   -5    1    2    4    8   -0.000514    0.000426
   -5    1    2    5    8   -0.000257   -0.000018
   -5    1    2    6    8   -0.001204   -0.000751
   -5    1    2    7    8   -0.000045   -0.000180
   -5    1    2    8    8   -0.001275    0.000007
   -5    1    2    9    8    0.000312    0.000323
   -5    1    2   10    8   -0.000159   -0.000015
   -5    1    2    1    9   -0.000229    0.000373
   -5    1    2    2    9    0.000243    0.000523
   -5    1    2    3    9   -0.000018    0.000055
   -5    1    2    4    9    0.000010   -0.000089
   -5    1    2    5    9    0.000992   -0.000911
   -5    1    2    6    9    0.002220   -0.000566
   -5    1    2    7    9    0.000960    0.000536
   -5    1    2    8    9    0.000429   -0.000447
   -5    1    2    9    9   -0.000953    0.000001
   -5    1    2   10    9   -0.000619    0.000573
   -5    1    2    1   10   -0.000097    0.000040
   -5    1    2    2   10   -0.000095    0.000351
   -5    1    2    3   10    0.001017   -0.000413
   -5    1    2    4   10   -0.000378    0.000326
   -5    1    2    5   10    0.000375   -0.000000
   -5    1    2    6   10    0.000007    0.000010
   -5    1    2    7   10    0.000120    0.000371
   -5    1    2    8   10    0.000093   -0.000008
   -5    1    2    9   10    0.000246    0.000230
   -5    1    2   10   10    0.000086   -0.000011
   -5    1    3    1    1   -0.001323    0.000004
   -5    1    3    2    1    0.000082   -0.000126
   -5    1    3    3    1    0.000532   -0.000055
   -5    1    3    4    1   -0.001222    0.000669
   -5    1    3    5    1   -0.000531   -0.000150
   -5    1    3    6    1   -0.000597   -0.000579
   -5    1    3    7    1   -0.000042   -0.000665
   -5    1    3    8    1    0.000299    0.000074
   -5    1    3    9    1    0.000808    0.001313
   -5    1    3   10    1    0.000290    0.000065
   -5    1    3    1    2   -0.000213   -0.000338
   -5    1    3    2    2    0.001433    0.000009
   -5    1    3    3    2   -0.000808   -0.000982
   -5    1    3    4    2    0.000378    0.000202
   -5    1    3    5    2   -0.000113   -0.000391
   -5    1    3    6    2   -0.000298    0.001519
   -5    1    3    7    2    0.000108   -0.000071
   -5    1    3    8    2   -0.000161   -0.000463
   -5    1    3    9    2    0.000929   -0.001967
   -5    1    3   10    2   -0.000158   -0.000553
   -5    1    3    1    3   -0.000553   -0.000070
   -5    1    3    2    3   -0.001293    0.001548
   -5    1    3    3    3    0.001007   -0.000001
   -5    1    3    4    3   -0.002114    0.000821
   -5    1    3    5    3    0.000253    0.000094
   -5    1    3    6    3    0.000709    0.000856
   -5    1    3    7    3   -0.000093    0.001550
   -5    1    3    8    3   -0.000509   -0.000165
   -5    1    3    9    3    0.000139    0.000306
   -5    1    3   10    3   -0.001401   -0.000566
   -5    1    3    1    4    0.001032    0.000558
   -5    1    3    2    4   -0.000284    0.000152
   -5    1    3    3    4   -0.000865   -0.000335
   -5    1    3    4    4    0.001397    0.000004
   -5    1    3    5    4    0.000235    0.000230
   -5    1    3    6    4    0.000004    0.000009
   -5    1    3    7    4   -0.000292    0.000628
   -5    1    3    8    4   -0.000061   -0.000046
   -5    1    3    9    4    0.000041    0.000937
   -5    1    3   10    4    0.000490    0.000478
   -5    1    3    1    5   -0.000272    0.000068
   -5    1    3    2    5   -0.000306    0.001023
   -5    1    3    3    5    0.000336   -0.000150
   -5    1    3    4    5    0.000602   -0.000595
   -5    1    3    5    5   -0.000488   -0.000005
   -5    1    3    6    5    0.001430    0.000762
   -5    1    3    7    5    0.000517    0.001456
   -5    1    3    8    5    0.000505   -0.000029
   -5    1    3    9    5    0.000175    0.000143
   -5    1    3   10    5   -0.001164    0.000020
   -5    1    3    1    6    0.000951   -0.000932
   -5    1    3    2    6    0.000171    0.000891
   -5    1    3    3    6    0.000060   -0.000073
   -5    1    3    4    6    0.000006   -0.000011
   -5    1    3    5    6    0.000125   -0.000074
   -5    1    3    6    6    0.001488   -0.000003
   -5    1    3    7    6    0.001601    0.001471
   -5    1    3    8    6    0.000224   -0.000124
   -5    1    3    9    6   -0.000561   -0.000147
   -5    1    3   10    6   -0.000601    0.000331
   -5    1    3    1    7    0.000068   -0.001354
   -5    1    3    2    7   -0.001001   -0.000726
   -5    1    3    3    7    0.000028    0.000706
   -5    1    3    4    7   -0.000559   -0.001229
   -5    1    3    5    7   -0.000091    0.000266
   -5    1    3    6    7    0.000808   -0.000749
   -5    1    3    7    7    0.001757    0.000003
   -5    1    3    8    7    0.000136   -0.000508
   -5    1    3    9    7   -0.000824    0.000455
   -5    1    3   10    7    0.000043   -0.000110
   -5    1    3    1    8    0.001174   -0.000234
   -5    1    3    2    8    0.000124   -0.000352
   -5    1    3    3    8   -0.000294    0.000093
   -5    1    3    4    8    0.001228   -0.001019
   -5    1    3    5    8    0.000040    0.000003
   -5    1    3    6    8    0.000594    0.000369
   -5    1    3    7    8   -0.000204   -0.000759
   -5    1    3    8    8    0.002205    0.000023
   -5    1    3    9    8   -0.000244   -0.000275
   -5    1    3   10    8    0.001398    0.000095
   -5    1    3    1    9   -0.000403    0.000660
   -5    1    3    2    9   -0.000237   -0.000472
   -5    1    3    3    9   -0.000244    0.000498
   -5    1    3    4    9    0.000075   -0.000950
   -5    1    3    5    9    0.000327   -0.000320
   -5    1    3    6    9   -0.000534    0.000143
   -5    1    3    7    9   -0.000501   -0.000253
   -5    1    3    8    9    0.000077   -0.000103
   -5    1    3    9    9    0.001370    0.000011
   -5    1    3   10    9   -0.000085    0.000079
   -5    1    3    1   10    0.000044   -0.000016
   -5    1    3    2   10   -0.000757    0.002420
   -5    1    3    3   10    0.000654   -0.000277
   -5    1    3    4   10   -0.000680    0.000643
   -5    1    3    5   10    0.001195    0.000012
   -5    1    3    6   10    0.000796    0.000430
   -5    1    3    7   10   -0.000132   -0.000388
   -5    1    3    8   10    0.000652   -0.000031
   -5    1    3    9   10   -0.000944   -0.000897
   -5    1    3   10   10   -0.002253    0.000003
   -5    2    0    1    1   -0.001283    0.000002
   -5    2    0    2    1   -0.000108    0.000168
   -5    2    0    3    1   -0.001382    0.000169
   -5    2    0    4    1    0.000806   -0.000438
   -5    2    0    5    1   -0.001501   -0.000429
   -5    2    0    6    1    0.000449    0.000429
   -5    2    0    7    1    0.000020    0.000471
   -5    2    0    8    1    0.001529    0.000321
   -5    2    0    9    1    0.000366    0.000601
   -5    2    0   10    1   -0.000260   -0.000076
   -5    2    0    1    2   -0.000384   -0.000581
   -5    2    0    2    2   -0.001276    0.000006
   -5    2    0    3    2   -0.000103   -0.000131
   -5    2    0    4    2   -0.000464   -0.000263
   -5    2    0    5    2    0.000127    0.000439
   -5    2    0    6    2    0.000060   -0.000309
   -5    2    0    7    2    0.000362   -0.000266
   -5    2    0    8    2    0.000250    0.000640
   -5    2    0    9    2   -0.000075    0.000123
   -5    2    0   10    2   -0.000201   -0.000640
   -5    2    0    1    3    0.000401    0.000066
   -5    2    0    2    3    0.000538   -0.000647
   -5    2    0    3    3   -0.001195    0.000001
   -5    2    0    4    3    0.000929   -0.000364
   -5    2    0    5    3   -0.000114   -0.000057
   -5    2    0    6    3    0.000186    0.000230
   -5    2    0    7    3   -0.000007    0.000030
   -5    2    0    8    3   -0.000002   -0.000010
   -5    2    0    9    3    0.000147    0.000293
   -5    2    0   10    3   -0.000099   -0.000037
   -5    2    0    1    4    0.000528    0.000289
   -5    2    0    2    4    0.000095   -0.000061
   -5    2    0    3    4   -0.000161   -0.000050
   -5    2    0    4    4   -0.000645    0.000008
   -5    2    0    5    4   -0.000074   -0.000054
   -5    2    0    6    4    0.000131    0.000423
   -5    2    0    7    4    0.000126   -0.000263
   -5    2    0    8    4    0.000633    0.000531
   -5    2    0    9    4   -0.000005   -0.000075
   -5    2    0   10    4    0.000285    0.000284
   -5    2    0    1    5   -0.003156    0.000906
   -5    2    0    2    5    0.000631   -0.002075
   -5    2    0    3    5   -0.000983    0.000405
   -5    2    0    4    5    0.000033   -0.000058
   -5    2    0    5    5   -0.000646    0.000013
   -5    2    0    6    5   -0.000024   -0.000013
   -5    2    0    7    5   -0.000440   -0.001290
   -5    2    0    8    5    0.000416   -0.000025
   -5    2    0    9    5    0.000716    0.000633
   -5    2    0   10    5    0.000132   -0.000015
   -5    2    0    1    6    0.000212   -0.000205
   -5    2    0    2    6   -0.000118   -0.000635
   -5    2    0    3    6    0.001329   -0.001627
   -5    2    0    4    6   -0.000011    0.000018
   -5    2    0    5    6   -0.000012   -0.000013
   -5    2    0    6    6   -0.001193    0.000002
   -5    2    0    7    6    0.000117    0.000121
   -5    2    0    8    6   -0.000469    0.000291
   -5    2    0    9    6    0.001041    0.000261
   -5    2    0   10    6    0.000340   -0.000179
   -5    2    0    1    7    0.000027   -0.000509
   -5    2    0    2    7    0.000007    0.000006
   -5    2    0    3    7   -0.000146   -0.002542
   -5    2    0    4    7    0.000337    0.000735
   -5    2    0    5    7    0.000151   -0.000435
   -5    2    0    6    7   -0.000802    0.000751
   -5    2    0    7    7   -0.000479    0.000002
   -5    2    0    8    7   -0.000067    0.000252
   -5    2    0    9    7    0.001773   -0.000960
   -5    2    0   10    7   -0.000106    0.000297
   -5    2    0    1    8   -0.000000   -0.000005
   -5    2    0    2    8   -0.000210    0.000536
   -5    2    0    3    8    0.000718   -0.000250
   -5    2    0    4    8   -0.000724    0.000624
   -5    2    0    5    8    0.000092    0.000003
   -5    2    0    6    8   -0.000033   -0.000009
   -5    2    0    7    8   -0.000129   -0.000437
   -5    2    0    8    8   -0.000813    0.000008
   -5    2    0    9    8    0.000219    0.000229
   -5    2    0   10    8    0.001214    0.000080
   -5    2    0    1    9    0.000166   -0.000251
   -5    2    0    2    9    0.000236    0.000487
   -5    2    0    3    9    0.000371   -0.000796
   -5    2    0    4    9   -0.000029    0.000424
   -5    2    0    5    9   -0.000611    0.000555
   -5    2    0    6    9   -0.000402    0.000097
   -5    2    0    7    9   -0.000656   -0.000345
   -5    2    0    8    9   -0.000263    0.000257
   -5    2    0    9    9   -0.000818    0.000010
   -5    2    0   10    9   -0.001031    0.000948
   -5    2    0    1   10   -0.000599    0.000173
   -5    2    0    2   10   -0.000120    0.000376
   -5    2    0    3   10   -0.000721    0.000303
   -5    2    0    4   10    0.001202   -0.001147
   -5    2    0    5   10    0.000183   -0.000001
   -5    2    0    6   10    0.000964    0.000521
   -5    2    0    7   10   -0.000405   -0.001179
   -5    2    0    8   10    0.000529   -0.000038
   -5    2    0    9   10   -0.001005   -0.000920
   -5    2    0   10   10   -0.000484    0.000001
   -5    2    1    1    1   -0.000553    0.000005
   -5    2    1    2    1    0.000251   -0.000393
   -5    2    1    3    1    0.000035   -0.000002
   -5    2    1    4    1   -0.000111    0.000074
   -5    2    1    5    1    0.000134    0.000042
   -5    2    1    6    1   -0.000036   -0.000066
   -5    2    1    7    1   -0.000050   -0.000815
   -5    2    1    8    1   -0.000737   -0.000157
   -5    2    1    9    1   -0.000565   -0.000905
   -5    2    1   10    1    0.000178    0.000052
   -5    2    1    1    2   -0.000150   -0.000257
   -5    2    1    2    2   -0.000519    0.000006
   -5    2    1    3    2   -0.000404   -0.000482
   -5    2    1    4    2    0.001987    0.001095
   -5    2    1    5    2   -0.000081   -0.000296
   -5    2    1    6    2   -0.000021    0.000084
   -5    2    1    7    2   -0.000117    0.000086
   -5    2    1    8    2   -0.000075   -0.000159
   -5    2    1    9    2   -0.000232    0.000464
   -5    2    1   10    2    0.000252    0.000797
   -5    2    1    1    3   -0.000509   -0.000062
   -5    2    1    2    3   -0.000891    0.001082
   -5    2    1    3    3    0.000127    0.000001
   -5    2    1    4    3   -0.000814    0.000333
   -5    2    1    5    3   -0.001085   -0.000459
   -5    2    1    6    3    0.000082    0.000091
   -5    2    1    7    3    0.000014   -0.000182
   -5    2    1    8    3   -0.000976   -0.000330
   -5    2    1    9    3    0.000461    0.000960
   -5    2    1   10    3   -0.000083   -0.000026
   -5    2    1    1    4   -0.000053   -0.000021
   -5    2    1    2    4    0.001360   -0.000760
   -5    2    1    3    4    0.000224    0.000065
   -5    2    1    4    4   -0.000193    0.000008
   -5    2    1    5    4   -0.000364   -0.000365
   -5    2    1    6    4   -0.000214   -0.000685
   -5    2    1    7    4   -0.000040    0.000081
   -5    2    1    8    4    0.000019    0.000023
   -5    2    1    9    4    0.000001    0.000051
   -5    2    1   10    4   -0.000182   -0.000166
   -5    2    1    1    5   -0.000539    0.000163
   -5    2    1    2    5   -0.000254    0.000881
   -5    2    1    3    5    0.000632   -0.000269
   -5    2    1    4    5    0.000742   -0.000725
   -5    2    1    5    5   -0.000700    0.000004
   -5    2    1    6    5    0.001172    0.000607
   -5    2    1    7    5    0.000464    0.001307
   -5    2    1    8    5   -0.000790    0.000060
   -5    2    1    9    5    0.000017    0.000006
   -5    2    1   10    5   -0.000027    0.000004
   -5    2    1    1    6   -0.000121    0.000117
   -5    2    1    2    6    0.000182    0.000923
   -5    2    1    3    6   -0.000019    0.000014
   -5    2    1    4    6   -0.000205    0.000655
   -5    2    1    5    6   -0.000194    0.000121
   -5    2    1    6    6   -0.000193    0.000007
   -5    2    1    7    6    0.000828    0.000774
   -5    2    1    8    6    0.000081   -0.000048
   -5    2    1    9    6    0.001006    0.000257
   -5    2    1   10    6    0.000189   -0.000113
   -5    2    1    1    7   -0.000067    0.001190
   -5    2    1    2    7   -0.000182   -0.000138
   -5    2    1    3    7    0.000060    0.000912
   -5    2    1    4    7   -0.000064   -0.000108
   -5    2    1    5    7    0.000123   -0.000377
   -5    2    1    6    7    0.000468   -0.000442
   -5    2    1    7    7   -0.000839    0.000005
   -5    2    1    8    7    0.000376   -0.001340
   -5    2    1    9    7   -0.001069    0.000588
   -5    2    1   10    7    0.000198   -0.000604
   -5    2    1    1    8   -0.000407    0.000093
   -5    2    1    2    8    0.000248   -0.000663
   -5    2    1    3    8    0.000985   -0.000335
   -5    2    1    4    8   -0.000749    0.000627
   -5    2    1    5    8   -0.000357   -0.000023
   -5    2    1    6    8   -0.000623   -0.000390
   -5    2    1    7    8    0.000368    0.001342
   -5    2    1    8    8   -0.000708   -0.000002
   -5    2    1    9    8    0.000309    0.000322
   -5    2    1   10    8   -0.000804   -0.000043
   -5    2    1    1    9   -0.000566    0.000904
   -5    2    1    2    9   -0.000652   -0.001408
   -5    2    1    3    9    0.000049   -0.000110
   -5    2    1    4    9   -0.000017    0.000385
   -5    2    1    5    9   -0.000139    0.000113
   -5    2    1    6    9   -0.000447    0.000111
   -5    2    1    7    9   -0.000367   -0.000216
   -5    2    1    8    9   -0.000081    0.000084
   -5    2    1    9    9   -0.000499   -0.000002
   -5    2    1   10    9    0.000507   -0.000464
   -5    2    1    1   10   -0.000379    0.000088
   -5    2    1    2   10   -0.000147    0.000443
   -5    2    1    3   10   -0.000151    0.000058
   -5    2    1    4   10    0.000561   -0.000531
   -5    2    1    5   10    0.000476    0.000006
   -5    2    1    6   10   -0.000588   -0.000313
   -5    2    1    7   10   -0.000124   -0.000386
   -5    2    1    8   10   -0.001248    0.000075
   -5    2    1    9   10    0.000080    0.000060
   -5    2    1   10   10   -0.001440   -0.000006
   -5    2    2    1    1    0.000079    0.000001
   -5    2    2    2    1   -0.000502    0.000768
   -5    2    2    3    1    0.000300   -0.000034
   -5    2    2    4    1    0.000040   -0.000035
   -5    2    2    5    1   -0.000058   -0.000013
   -5    2    2    6    1    0.000031    0.000027
   -5    2    2    7    1   -0.000021   -0.000373
   -5    2    2    8    1   -0.000481   -0.000086
   -5    2    2    9    1   -0.000090   -0.000181
   -5    2    2   10    1    0.000226    0.000050
   -5    2    2    1    2    0.000131    0.000187
   -5    2    2    2    2   -0.001022    0.000007
   -5    2    2    3    2    0.000553    0.000665
   -5    2    2    4    2   -0.000693   -0.000379
   -5    2    2    5    2   -0.000272   -0.000885
   -5    2    2    6    2   -0.000102    0.000488
   -5    2    2    7    2   -0.000169    0.000121
   -5    2    2    8    2   -0.000223   -0.000596
   -5    2    2    9    2    0.000333   -0.000690
   -5    2    2   10    2    0.000144    0.000427
   -5    2    2    1    3   -0.000794   -0.000109
   -5    2    2    2    3   -0.001385    0.001656
   -5    2    2    3    3   -0.000597    0.000001
   -5    2    2    4    3    0.001692   -0.000647
   -5    2    2    5    3   -0.000976   -0.000412
   -5    2    2    6    3    0.000162    0.000183
   -5    2    2    7    3   -0.000042    0.000727
   -5    2    2    8    3   -0.000907   -0.000310
   -5    2    2    9    3    0.000996    0.002130
   -5    2    2   10    3    0.000475    0.000192
   -5    2    2    1    4    0.000779    0.000412
   -5    2    2    2    4    0.000915   -0.000513
   -5    2    2    3    4   -0.000386   -0.000145
   -5    2    2    4    4   -0.000034   -0.000007
   -5    2    2    5    4    0.000165    0.000165
   -5    2    2    6    4   -0.000193   -0.000585
   -5    2    2    7    4   -0.000153    0.000327
   -5    2    2    8    4    0.000633    0.000524
   -5    2    2    9    4   -0.000053   -0.000831
   -5    2    2   10    4   -0.000488   -0.000451
   -5    2    2    1    5    0.001848   -0.000514
   -5    2    2    2    5   -0.000983    0.003200
   -5    2    2    3    5    0.000132   -0.000049
   -5    2    2    4    5    0.000601   -0.000587
   -5    2    2    5    5   -0.000712   -0.000010
   -5    2    2    6    5    0.000290    0.000159
   -5    2    2    7    5   -0.000159   -0.000424
   -5    2    2    8    5   -0.000356    0.000021
   -5    2    2    9    5    0.000083    0.000082
   -5    2    2   10    5    0.000039   -0.000004
   -5    2    2    1    6    0.001167   -0.001100
   -5    2    2    2    6   -0.000015   -0.000044
   -5    2    2    3    6    0.000093   -0.000111
   -5    2    2    4    6    0.000397   -0.001239
   -5    2    2    5    6   -0.000332    0.000184
   -5    2    2    6    6   -0.001462   -0.000003
   -5    2    2    7    6   -0.000693   -0.000653
   -5    2    2    8    6    0.000615   -0.000380
   -5    2    2    9    6   -0.000333   -0.000081
   -5    2    2   10    6   -0.000693    0.000372
   -5    2    2    1    7    0.000072   -0.001261
   -5    2    2    2    7   -0.000209   -0.000159
   -5    2    2    3    7    0.000015    0.000203
   -5    2    2    4    7   -0.000462   -0.001017
   -5    2    2    5    7    0.000140   -0.000429
   -5    2    2    6    7    0.000708   -0.000660
   -5    2    2    7    7   -0.000869    0.000007
   -5    2    2    8    7    0.000123   -0.000452
   -5    2    2    9    7   -0.004244    0.002296
   -5    2    2   10    7   -0.000310    0.000882
   -5    2    2    1    8   -0.001644    0.000359
   -5    2    2    2    8    0.001475   -0.003869
   -5    2    2    3    8   -0.000125    0.000056
   -5    2    2    4    8   -0.000835    0.000690
   -5    2    2    5    8   -0.000826   -0.000057
   -5    2    2    6    8   -0.001747   -0.001088
   -5    2    2    7    8   -0.000370   -0.001348
   -5    2    2    8    8   -0.000739   -0.000000
   -5    2    2    9    8    0.000283    0.000298
   -5    2    2   10    8    0.000136   -0.000012
   -5    2    2    1    9   -0.000770    0.001220
   -5    2    2    2    9   -0.000057   -0.000136
   -5    2    2    3    9   -0.000044    0.000098
   -5    2    2    4    9    0.000043   -0.000542
   -5    2    2    5    9   -0.000438    0.000383
   -5    2    2    6    9   -0.000346    0.000089
   -5    2    2    7    9    0.000032    0.000032
   -5    2    2    8    9   -0.000354    0.000372
   -5    2    2    9    9   -0.000366    0.000000
   -5    2    2   10    9    0.000514   -0.000471
   -5    2    2    1   10    0.000319   -0.000084
   -5    2    2    2   10   -0.000038    0.000090
   -5    2    2    3   10    0.001672   -0.000674
   -5    2    2    4   10    0.000006   -0.000030
   -5    2    2    5   10    0.000974   -0.000000
   -5    2    2    6   10    0.000549    0.000296
   -5    2    2    7   10   -0.000053   -0.000183
   -5    2    2    8   10   -0.001110    0.000063
   -5    2    2    9   10    0.001869    0.001737
   -5    2    2   10   10    0.000102    0.000002
   -5    2    3    1    1   -0.001108    0.000015
   -5    2    3    2    1    0.000087   -0.000122
   -5    2    3    3    1   -0.000327    0.000044
   -5    2    3    4    1   -0.000317    0.000164
   -5    2    3    5    1    0.000377    0.000110
   -5    2    3    6    1    0.000845    0.000812
   -5    2    3    7    1    0.000070    0.001022
   -5    2    3    8    1    0.000447    0.000085
   -5    2    3    9    1    0.000421    0.000690
   -5    2    3   10    1    0.000804    0.000223
   -5    2    3    1    2    0.000034    0.000066
   -5    2    3    2    2   -0.000378   -0.000005
   -5    2    3    3    2   -0.000597   -0.000700
   -5    2    3    4    2    0.002649    0.001462
   -5    2    3    5    2   -0.000105   -0.000329
   -5    2    3    6    2    0.000225   -0.001161
   -5    2    3    7    2   -0.000385    0.000283
   -5    2    3    8    2    0.000230    0.000590
   -5    2    3    9    2    0.000219   -0.000433
   -5    2    3   10    2    0.000202    0.000647
   -5    2    3    1    3    0.000627    0.000079
   -5    2    3    2    3    0.000143   -0.000174
   -5    2    3    3    3   -0.001287   -0.000010
   -5    2    3    4    3   -0.002116    0.000824
   -5    2    3    5    3    0.000482    0.000206
   -5    2    3    6    3   -0.000078   -0.000093
   -5    2    3    7    3    0.000023   -0.000414
   -5    2    3    8    3    0.000124    0.000044
   -5    2    3    9    3   -0.000047   -0.000101
   -5    2    3   10    3    0.001075    0.000428
   -5    2    3    1    4   -0.000185   -0.000105
   -5    2    3    2    4    0.001136   -0.000615
   -5    2    3    3    4   -0.000066   -0.000036
   -5    2    3    4    4   -0.001129   -0.000003
   -5    2    3    5    4   -0.000417   -0.000410
   -5    2    3    6    4    0.000100    0.000306
   -5    2    3    7    4   -0.000031    0.000048
   -5    2    3    8    4    0.000255    0.000211
   -5    2    3    9    4    0.000014    0.000433
   -5    2    3   10    4    0.000124    0.000100
   -5    2    3    1    5   -0.001007    0.000288
   -5    2    3    2    5   -0.000260    0.000832
   -5    2    3    3    5   -0.000127    0.000046
   -5    2    3    4    5    0.000672   -0.000644
   -5    2    3    5    5   -0.000785   -0.000004
   -5    2    3    6    5    0.001556    0.000826
   -5    2    3    7    5    0.000432    0.001232
   -5    2    3    8    5    0.000093   -0.000001
   -5    2    3    9    5    0.000662    0.000598
   -5    2    3   10    5    0.000275   -0.000013
   -5    2    3    1    6   -0.000501    0.000468
   -5    2    3    2    6    0.000047    0.000258
   -5    2    3    3    6    0.000124   -0.000149
   -5    2    3    4    6   -0.000216    0.000650
   -5    2    3    5    6   -0.000550    0.000296
   -5    2    3    6    6   -0.000292    0.000005
   -5    2    3    7    6    0.000780    0.000714
   -5    2    3    8    6    0.000432   -0.000260
   -5    2    3    9    6   -0.000725   -0.000187
   -5    2    3   10    6    0.000012   -0.000007
   -5    2    3    1    7    0.000022   -0.000432
   -5    2    3    2    7   -0.000269   -0.000198
   -5    2    3    3    7    0.000033    0.000678
   -5    2    3    4    7   -0.000275   -0.000642
   -5    2    3    5    7    0.000436   -0.001245
   -5    2    3    6    7    0.000516   -0.000483
   -5    2    3    7    7   -0.000586   -0.000005
   -5    2    3    8    7    0.000104   -0.000356
   -5    2    3    9    7   -0.000951    0.000526
   -5    2    3   10    7   -0.000031    0.000106
   -5    2    3    1    8   -0.000042   -0.000002
   -5    2    3    2    8    0.000164   -0.000458
   -5    2    3    3    8   -0.000443    0.000149
   -5    2    3    4    8   -0.000225    0.000185
   -5    2    3    5    8    0.000492    0.000041
   -5    2    3    6    8    0.000441    0.000283
   -5    2    3    7    8    0.000426    0.001559
   -5    2    3    8    8   -0.000551    0.000006
   -5    2    3    9    8    0.000070    0.000074
   -5    2    3   10    8    0.001475    0.000085
   -5    2    3    1    9    0.000087   -0.000144
   -5    2    3    2    9    0.000168    0.000360
   -5    2    3    3    9   -0.000177    0.000351
   -5    2    3    4    9    0.000038   -0.000381
   -5    2    3    5    9   -0.000545    0.000525
   -5    2    3    6    9    0.000240   -0.000063
   -5    2    3    7    9   -0.000636   -0.000360
   -5    2    3    8    9   -0.000173    0.000195
   -5    2    3    9    9   -0.001218   -0.000010
   -5    2    3   10    9   -0.000898    0.000831
   -5    2    3    1   10    0.000305   -0.000087
   -5    2    3    2   10   -0.000115    0.000377
   -5    2    3    3   10   -0.000164    0.000061
   -5    2    3    4   10    0.000201   -0.000207
   -5    2    3    5   10   -0.000590   -0.000000
   -5    2    3    6   10   -0.000033   -0.000017
   -5    2    3    7   10   -0.000003   -0.000020
   -5    2    3    8   10   -0.000158    0.000001
   -5    2    3    9   10   -0.000544   -0.000491
   -5    2    3   10   10   -0.001432    0.000014
   -5    3   -1    1    1    0.000562    0.000002
   -5    3   -1    2    1    0.000102   -0.000157
   -5    3   -1    3    1   -0.000218    0.000039
   -5    3   -1    4    1    0.000661   -0.000354
   -5    3   -1    5    1    0.001089    0.000315
   -5    3   -1    6    1    0.000428    0.000409
   -5    3   -1    7    1   -0.000056   -0.000976
   -5    3   -1    8    1   -0.000140   -0.000044
   -5    3   -1    9    1   -0.000596   -0.000958
   -5    3   -1   10    1   -0.000177   -0.000050
   -5    3   -1    1    2    0.000064    0.000092
   -5    3   -1    2    2    0.000560    0.000004
   -5    3   -1    3    2    0.000433    0.000510
   -5    3   -1    4    2   -0.000384   -0.000210
   -5    3   -1    5    2   -0.000117   -0.000404
   -5    3   -1    6    2    0.000097   -0.000489
   -5    3   -1    7    2    0.000199   -0.000150
   -5    3   -1    8    2    0.000079    0.000249
   -5    3   -1    9    2   -0.000672    0.001448
   -5    3   -1   10    2    0.000418    0.001302
   -5    3   -1    1    3    0.000084    0.000011
   -5    3   -1    2    3    0.000641   -0.000793
   -5    3   -1    3    3   -0.000478   -0.000003
   -5    3   -1    4    3   -0.000934    0.000363
   -5    3   -1    5    3    0.000864    0.000368
   -5    3   -1    6    3    0.000015    0.000030
   -5    3   -1    7    3    0.000059   -0.000879
   -5    3   -1    8    3    0.000383    0.000143
   -5    3   -1    9    3   -0.000010   -0.000033
   -5    3   -1   10    3    0.000910    0.000367
   -5    3   -1    1    4    0.000095    0.000045
   -5    3   -1    2    4    0.001655   -0.000909
   -5    3   -1    3    4   -0.000599   -0.000236
   -5    3   -1    4    4   -0.000427   -0.000004
   -5    3   -1    5    4   -0.000291   -0.000282
   -5    3   -1    6    4    0.000164    0.000498
   -5    3   -1    7    4   -0.000273    0.000609
   -5    3   -1    8    4   -0.002789   -0.002338
   -5    3   -1    9    4    0.000035    0.000433
   -5    3   -1   10    4   -0.000619   -0.000574
   -5    3   -1    1    5   -0.000259    0.000072
   -5    3   -1    2    5    0.000121   -0.000406
   -5    3   -1    3    5    0.000601   -0.000255
   -5    3   -1    4    5   -0.000420    0.000427
   -5    3   -1    5    5   -0.000427   -0.000002
   -5    3   -1    6    5    0.000140    0.000065
   -5    3   -1    7    5   -0.000458   -0.001330
   -5    3   -1    8    5   -0.000482    0.000035
   -5    3   -1    9    5   -0.000258   -0.000238
   -5    3   -1   10    5    0.000883   -0.000007
   -5    3   -1    1    6    0.000068   -0.000055
   -5    3   -1    2    6    0.000104    0.000559
   -5    3   -1    3    6   -0.001247    0.001518
   -5    3   -1    4    6    0.000156   -0.000471
   -5    3   -1    5    6    0.000117   -0.000064
   -5    3   -1    6    6   -0.000480   -0.000002
   -5    3   -1    7    6   -0.000734   -0.000677
   -5    3   -1    8    6    0.000563   -0.000345
   -5    3   -1    9    6   -0.001105   -0.000278
   -5    3   -1   10    6    0.000782   -0.000427
   -5    3   -1    1    7   -0.000060    0.000910
   -5    3   -1    2    7    0.000291    0.000212
   -5    3   -1    3    7    0.000156    0.002520
   -5    3   -1    4    7    0.000157    0.000370
   -5    3   -1    5    7    0.000644   -0.001831
   -5    3   -1    6    7   -0.000569    0.000536
   -5    3   -1    7    7    0.000315    0.000005
   -5    3   -1    8    7    0.000241   -0.000885
   -5    3   -1    9    7   -0.000015    0.000010
   -5    3   -1   10    7    0.000024   -0.000065
   -5    3   -1    1    8   -0.000143    0.000027
   -5    3   -1    2    8    0.000178   -0.000447
   -5    3   -1    3    8   -0.000836    0.000282
   -5    3   -1    4    8    0.000272   -0.000224
   -5    3   -1    5    8   -0.000438   -0.000028
   -5    3   -1    6    8   -0.000336   -0.000201
   -5    3   -1    7    8    0.000282    0.000990
   -5    3   -1    8    8    0.000598   -0.000003
   -5    3   -1    9    8   -0.000322   -0.000335
   -5    3   -1   10    8   -0.001127   -0.000051
   -5    3   -1    1    9    0.000837   -0.001376
   -5    3   -1    2    9   -0.000022   -0.000051
   -5    3   -1    3    9   -0.000199    0.000411
   -5    3   -1    4    9    0.000032   -0.000482
   -5    3   -1    5    9    0.002694   -0.002442
   -5    3   -1    6    9    0.000251   -0.000056
   -5    3   -1    7    9   -0.000260   -0.000142
   -5    3   -1    8    9    0.001180   -0.001223
   -5    3   -1    9    9    0.000602   -0.000003
   -5    3   -1   10    9    0.000458   -0.000411
   -5    3   -1    1   10    0.000903   -0.000255
   -5    3   -1    2   10    0.000062   -0.000189
   -5    3   -1    3   10   -0.000043    0.000006
   -5    3   -1    4   10    0.000171   -0.000147
   -5    3   -1    5   10   -0.000532   -0.000002
   -5    3   -1    6   10   -0.000228   -0.000115
   -5    3   -1    7   10    0.000097    0.000306
   -5    3   -1    8   10    0.001539   -0.000090
   -5    3   -1    9   10   -0.000082   -0.000078
   -5    3   -1   10   10    0.000314    0.000004
   -5    3    0    1    1   -0.001067   -0.000014
   -5    3    0    2    1   -0.000790    0.001217
   -5    3    0    3    1   -0.000098    0.000007
   -5    3    0    4    1   -0.000108    0.000066
   -5    3    0    5    1   -0.000354   -0.000099
   -5    3    0    6    1    0.000535    0.000524
   -5    3    0    7    1    0.000002    0.000157
   -5    3    0    8    1    0.001336    0.000285
   -5    3    0    9    1    0.000355    0.000585
   -5    3    0   10    1    0.000318    0.000085
   -5    3    0    1    2    0.000345    0.000545
   -5    3    0    2    2   -0.000843   -0.000002
   -5    3    0    3    2   -0.000199   -0.000225
   -5    3    0    4    2    0.000513    0.000282
   -5    3    0    5    2    0.000545    0.001823
   -5    3    0    6    2   -0.000009   -0.000008
   -5    3    0    7    2   -0.000065    0.000036
   -5    3    0    8    2    0.000295    0.000760
   -5    3    0    9    2    0.000247   -0.000534
   -5    3    0   10    2   -0.000091   -0.000337
   -5    3    0    1    3    0.000374    0.000041
   -5    3    0    2    3    0.000260   -0.000294
   -5    3    0    3    3   -0.000914    0.000007
   -5    3    0    4    3    0.000643   -0.000256
   -5    3    0    5    3   -0.002373   -0.000993
   -5    3    0    6    3   -0.000094   -0.000110
   -5    3    0    7    3   -0.000124    0.001990
   -5    3    0    8    3    0.002784    0.000944
   -5    3    0    9    3    0.000411    0.000892
   -5    3    0   10    3    0.000238    0.000096
   -5    3    0    1    4    0.000070    0.000039
   -5    3    0    2    4   -0.000989    0.000546
   -5    3    0    3    4   -0.000038   -0.000017
   -5    3    0    4    4   -0.001163    0.000003
   -5    3    0    5    4    0.000929    0.000897
   -5    3    0    6    4   -0.000040   -0.000094
   -5    3    0    7    4    0.000622   -0.001335
   -5    3    0    8    4    0.001522    0.001281
   -5    3    0    9    4   -0.000048   -0.000905
   -5    3    0   10    4   -0.000323   -0.000292
   -5    3    0    1    5    0.002399   -0.000680
   -5    3    0    2    5   -0.000219    0.000712
   -5    3    0    3    5   -0.000426    0.000194
   -5    3    0    4    5    0.000851   -0.000836
   -5    3    0    5    5   -0.000848    0.000009
   -5    3    0    6    5    0.000763    0.000421
   -5    3    0    7    5    0.000244    0.000695
   -5    3    0    8    5    0.001417   -0.000099
   -5    3    0    9    5    0.000138    0.000129
   -5    3    0   10    5   -0.000084   -0.000006
   -5    3    0    1    6    0.000477   -0.000460
   -5    3    0    2    6   -0.000083   -0.000422
   -5    3    0    3    6    0.000012   -0.000013
   -5    3    0    4    6    0.000135   -0.000453
   -5    3    0    5    6    0.000036   -0.000021
   -5    3    0    6    6   -0.000653    0.000013
   -5    3    0    7    6    0.000551    0.000507
   -5    3    0    8    6   -0.000154    0.000100
   -5    3    0    9    6    0.001503    0.000382
   -5    3    0   10    6   -0.000340    0.000187
   -5    3    0    1    7    0.000040   -0.000540
   -5    3    0    2    7   -0.000139   -0.000094
   -5    3    0    3    7   -0.000037   -0.000469
   -5    3    0    4    7   -0.000363   -0.000806
   -5    3    0    5    7   -0.000269    0.000791
   -5    3    0    6    7   -0.000285    0.000251
   -5    3    0    7    7   -0.000545    0.000004
   -5    3    0    8    7   -0.000169    0.000586
   -5    3    0    9    7    0.000977   -0.000547
   -5    3    0   10    7   -0.000518    0.001475
   -5    3    0    1    8    0.001307   -0.000278
   -5    3    0    2    8   -0.000404    0.001051
   -5    3    0    3    8    0.001471   -0.000504
   -5    3    0    4    8   -0.000550    0.000456
   -5    3    0    5    8   -0.000470   -0.000041
   -5    3    0    6    8   -0.000572   -0.000361
   -5    3    0    7    8   -0.000038   -0.000146
   -5    3    0    8    8   -0.001009   -0.000002
   -5    3    0    9    8    0.000180    0.000199
   -5    3    0   10    8    0.000516    0.000043
   -5    3    0    1    9    0.000230   -0.000356
   -5    3    0    2    9    0.000054    0.000139
   -5    3    0    3    9   -0.000078    0.000164
   -5    3    0    4    9    0.000025   -0.000413
   -5    3    0    5    9   -0.001670    0.001509
   -5    3    0    6    9    0.003160   -0.000831
   -5    3    0    7    9    0.000230    0.000126
   -5    3    0    8    9   -0.000569    0.000584
   -5    3    0    9    9   -0.001253   -0.000003
   -5    3    0   10    9   -0.000912    0.000843
   -5    3    0    1   10   -0.000278    0.000085
   -5    3    0    2   10    0.000054   -0.000190
   -5    3    0    3   10    0.000926   -0.000370
   -5    3    0    4   10   -0.000840    0.000800
   -5    3    0    5   10    0.000540   -0.000004
   -5    3    0    6   10   -0.001412   -0.000780
   -5    3    0    7   10    0.000097    0.000271
   -5    3    0    8   10    0.000768   -0.000054
   -5    3    0    9   10    0.000322    0.000305
   -5    3    0   10   10   -0.000518   -0.000005
   -5    3    1    1    1    0.001163   -0.000004
   -5    3    1    2    1    0.000361   -0.000549
   -5    3    1    3    1    0.000417   -0.000058
   -5    3    1    4    1    0.000041   -0.000020
   -5    3    1    5    1   -0.000378   -0.000098
   -5    3    1    6    1    0.000086    0.000107
   -5    3    1    7    1   -0.000044   -0.000761
   -5    3    1    8    1   -0.000377   -0.000074
   -5    3    1    9    1   -0.000304   -0.000447
   -5    3    1   10    1    0.000737    0.000205
   -5    3    1    1    2   -0.000776   -0.001206
   -5    3    1    2    2   -0.000428   -0.000003
   -5    3    1    3    2    0.000356    0.000414
   -5    3    1    4    2    0.000188    0.000095
   -5    3    1    5    2   -0.000158   -0.000538
   -5    3    1    6    2    0.000111   -0.000583
   -5    3    1    7    2   -0.000269    0.000190
   -5    3    1    8    2   -0.000564   -0.001445
   -5    3    1    9    2   -0.000187    0.000375
   -5    3    1   10    2    0.000222    0.000698
   -5    3    1    1    3    0.000138    0.000004
   -5    3    1    2    3   -0.000572    0.000691
   -5    3    1    3    3    0.001116   -0.000003
   -5    3    1    4    3    0.000832   -0.000315
   -5    3    1    5    3    0.000064    0.000020
   -5    3    1    6    3   -0.000797   -0.000978
   -5    3    1    7    3    0.000048   -0.000769
   -5    3    1    8    3    0.000582    0.000195
   -5    3    1    9    3    0.000010    0.000021
   -5    3    1   10    3    0.000566    0.000245
   -5    3    1    1    4   -0.000340   -0.000164
   -5    3    1    2    4    0.000898   -0.000495
   -5    3    1    3    4   -0.000219   -0.000090
   -5    3    1    4    4   -0.001324   -0.000001
   -5    3    1    5    4    0.000002    0.000005
   -5    3    1    6    4    0.000415    0.001246
   -5    3    1    7    4   -0.000434    0.000933
   -5    3    1    8    4   -0.000076   -0.000065
   -5    3    1    9    4   -0.000004   -0.000076
   -5    3    1   10    4   -0.000930   -0.000899
   -5    3    1    1    5   -0.000352    0.000107
   -5    3    1    2    5   -0.000061    0.000219
   -5    3    1    3    5    0.000415   -0.000191
   -5    3    1    4    5    0.000608   -0.000582
   -5    3    1    5    5    0.001120   -0.000004
   -5    3    1    6    5    0.000611    0.000320
   -5    3    1    7    5   -0.000056   -0.000165
   -5    3    1    8    5    0.000477   -0.000032
   -5    3    1    9    5   -0.001615   -0.001459
   -5    3    1   10    5    0.000104    0.000004
   -5    3    1    1    6    0.000339   -0.000308
   -5    3    1    2    6    0.000013    0.000085
   -5    3    1    3    6   -0.000137    0.000156
   -5    3    1    4    6    0.000104   -0.000318
   -5    3    1    5    6    0.000982   -0.000512
   -5    3    1    6    6    0.002233   -0.000001
   -5    3    1    7    6   -0.000306   -0.000272
   -5    3    1    8    6    0.000075   -0.000052
   -5    3    1    9    6   -0.000387   -0.000106
   -5    3    1   10    6   -0.000482    0.000263
   -5    3    1    1    7   -0.000017    0.000368
   -5    3    1    2    7   -0.000146   -0.000108
   -5    3    1    3    7   -0.000032   -0.000398
   -5    3    1    4    7    0.000148    0.000340
   -5    3    1    5    7    0.000483   -0.001352
   -5    3    1    6    7    0.000839   -0.000783
   -5    3    1    7    7   -0.001305    0.000001
   -5    3    1    8    7    0.000108   -0.000360
   -5    3    1    9    7   -0.000903    0.000480
   -5    3    1   10    7    0.000294   -0.000856
   -5    3    1    1    8   -0.000392    0.000091
   -5    3    1    2    8    0.000405   -0.001029
   -5    3    1    3    8   -0.000124    0.000032
   -5    3    1    4    8   -0.000161    0.000148
   -5    3    1    5    8    0.000465    0.000044
   -5    3    1    6    8    0.000110    0.000066
   -5    3    1    7    8    0.000202    0.000743
   -5    3    1    8    8    0.001198   -0.000011
   -5    3    1    9    8   -0.000119   -0.000135
   -5    3    1   10    8   -0.000608   -0.000041
   -5    3    1    1    9    0.000032   -0.000039
   -5    3    1    2    9   -0.000020   -0.000068
   -5    3    1    3    9    0.000011   -0.000033
   -5    3    1    4    9    0.000041   -0.000524
   -5    3    1    5    9    0.000488   -0.000432
   -5    3    1    6    9    0.000373   -0.000094
   -5    3    1    7    9    0.001263    0.000680
   -5    3    1    8    9    0.000144   -0.000152
   -5    3    1    9    9    0.001031   -0.000014
   -5    3    1   10    9    0.000154   -0.000145
   -5    3    1    1   10   -0.000272    0.000076
   -5    3    1    2   10    0.000406   -0.001260
   -5    3    1    3   10    0.000136   -0.000046
   -5    3    1    4   10    0.000512   -0.000491
   -5    3    1    5   10   -0.000012   -0.000003
   -5    3    1    6   10    0.000663    0.000372
   -5    3    1    7   10   -0.000587   -0.001714
   -5    3    1    8   10    0.000179   -0.000011
   -5    3    1    9   10    0.000213    0.000191
   -5    3    1   10   10    0.001792   -0.000003
   -5    3    2    1    1   -0.000821   -0.000004
   -5    3    2    2    1    0.000188   -0.000323
   -5    3    2    3    1    0.000816   -0.000099
   -5    3    2    4    1    0.001269   -0.000673
   -5    3    2    5    1    0.002471    0.000699
   -5    3    2    6    1    0.000543    0.000515
   -5    3    2    7    1    0.000086    0.001431
   -5    3    2    8    1    0.000287    0.000064
   -5    3    2    9    1    0.000901    0.001448
   -5    3    2   10    1    0.000722    0.000200
   -5    3    2    1    2    0.000055    0.000079
   -5    3    2    2    2   -0.000377   -0.000003
   -5    3    2    3    2    0.000647    0.000783
   -5    3    2    4    2    0.000030    0.000011
   -5    3    2    5    2   -0.000016   -0.000043
   -5    3    2    6    2   -0.000003   -0.000032
   -5    3    2    7    2   -0.000006    0.000009
   -5    3    2    8    2    0.000198    0.000522
   -5    3    2    9    2    0.000656   -0.001363
   -5    3    2   10    2   -0.000458   -0.001415
   -5    3    2    1    3    0.000210    0.000037
   -5    3    2    2    3   -0.000002    0.000006
   -5    3    2    3    3   -0.001124    0.000002
   -5    3    2    4    3   -0.001110    0.000430
   -5    3    2    5    3    0.000341    0.000147
   -5    3    2    6    3    0.000231    0.000288
   -5    3    2    7    3    0.000019   -0.000324
   -5    3    2    8    3    0.000937    0.000315
   -5    3    2    9    3   -0.000131   -0.000255
   -5    3    2   10    3    0.000608    0.000235
   -5    3    2    1    4   -0.000421   -0.000224
   -5    3    2    2    4    0.000256   -0.000142
   -5    3    2    3    4   -0.000505   -0.000188
   -5    3    2    4    4   -0.001634   -0.000005
   -5    3    2    5    4   -0.001173   -0.001151
   -5    3    2    6    4    0.000071    0.000196
   -5    3    2    7    4    0.000136   -0.000289
   -5    3    2    8    4    0.000221    0.000198
   -5    3    2    9    4    0.000120    0.001789
   -5    3    2   10    4   -0.000487   -0.000468
   -5    3    2    1    5   -0.000349    0.000096
   -5    3    2    2    5   -0.000302    0.000997
   -5    3    2    3    5    0.000686   -0.000291
   -5    3    2    4    5    0.000461   -0.000447
   -5    3    2    5    5   -0.001049    0.000009
   -5    3    2    6    5    0.000554    0.000301
   -5    3    2    7    5    0.000330    0.000945
   -5    3    2    8    5   -0.000415    0.000015
   -5    3    2    9    5    0.000096    0.000061
   -5    3    2   10    5    0.000457   -0.000011
   -5    3    2    1    6   -0.000114    0.000128
   -5    3    2    2    6    0.000101    0.000484
   -5    3    2    3    6   -0.000008    0.000010
   -5    3    2    4    6    0.000189   -0.000566
   -5    3    2    5    6    0.000792   -0.000418
   -5    3    2    6    6    0.000069   -0.000006
   -5    3    2    7    6   -0.000894   -0.000835
   -5    3    2    8    6    0.000326   -0.000223
   -5    3    2    9    6    0.000211    0.000051
   -5    3    2   10    6   -0.000677    0.000369
   -5    3    2    1    7   -0.000081    0.001502
   -5    3    2    2    7    0.000188    0.000125
   -5    3    2    3    7   -0.000022   -0.000412
   -5    3    2    4    7   -0.000417   -0.000904
   -5    3    2    5    7    0.000117   -0.000341
   -5    3    2    6    7    0.001070   -0.000997
   -5    3    2    7    7   -0.000616   -0.000005
   -5    3    2    8    7    0.000388   -0.001448
   -5    3    2    9    7   -0.000688    0.000386
   -5    3    2   10    7    0.000209   -0.000625
   -5    3    2    1    8    0.000321   -0.000037
   -5    3    2    2    8    0.000137   -0.000356
   -5    3    2    3    8    0.000116   -0.000035
   -5    3    2    4    8   -0.001115    0.000940
   -5    3    2    5    8    0.001453    0.000104
   -5    3    2    6    8    0.000147    0.000087
   -5    3    2    7    8   -0.000379   -0.001404
   -5    3    2    8    8   -0.000754   -0.000002
   -5    3    2    9    8    0.000350    0.000354
   -5    3    2   10    8    0.001939    0.000125
   -5    3    2    1    9    0.000975   -0.001551
   -5    3    2    2    9   -0.000689   -0.001442
   -5    3    2    3    9   -0.000144    0.000335
   -5    3    2    4    9   -0.000062    0.000679
   -5    3    2    5    9   -0.001582    0.001432
   -5    3    2    6    9    0.000403   -0.000103
   -5    3    2    7    9   -0.000199   -0.000122
   -5    3    2    8    9   -0.000933    0.000981
   -5    3    2    9    9   -0.001506    0.000017
   -5    3    2   10    9    0.000462   -0.000453
   -5    3    2    1   10    0.000126   -0.000035
   -5    3    2    2   10    0.000431   -0.001413
   -5    3    2    3   10    0.000626   -0.000250
   -5    3    2    4   10    0.000343   -0.000328
   -5    3    2    5   10   -0.000646   -0.000010
   -5    3    2    6   10   -0.000798   -0.000449
   -5    3    2    7   10    0.000076    0.000189
   -5    3    2    8   10    0.001931   -0.000109
   -5    3    2    9   10   -0.000709   -0.000673
   -5    3    2   10   10   -0.000951   -0.000002
   -5    3    3    1    1   -0.000478   -0.000004
   -5    3    3    2    1    0.000510   -0.000810
   -5    3    3    3    1   -0.000515    0.000067
   -5    3    3    4    1    0.000065   -0.000037
   -5    3    3    5    1   -0.000213   -0.000064
   -5    3    3    6    1    0.000446    0.000422
   -5    3    3    7    1   -0.000009   -0.000167
   -5    3    3    8    1    0.000534    0.000116
   -5    3    3    9    1   -0.000412   -0.000669
   -5    3    3   10    1   -0.000589   -0.000166
   -5    3    3    1    2    0.000112    0.000163
   -5    3    3    2    2    0.000056    0.000002
   -5    3    3    3    2   -0.000017   -0.000016
   -5    3    3    4    2    0.000233    0.000128
   -5    3    3    5    2   -0.000428   -0.001413
   -5    3    3    6    2   -0.000042    0.000233
   -5    3    3    7    2   -0.000011    0.000002
   -5    3    3    8    2    0.000055    0.000163
   -5    3    3    9    2    0.000005   -0.000023
   -5    3    3   10    2    0.000074    0.000208
   -5    3    3    1    3   -0.000553   -0.000060
   -5    3    3    2    3   -0.000060    0.000075
   -5    3    3    3    3    0.000537    0.000001
   -5    3    3    4    3   -0.000080    0.000021
   -5    3    3    5    3   -0.000064   -0.000028
   -5    3    3    6    3    0.000158    0.000189
   -5    3    3    7    3   -0.000011    0.000187
   -5    3    3    8    3    0.001774    0.000599
   -5    3    3    9    3   -0.000374   -0.000808
   -5    3    3   10    3    0.000998    0.000412
   -5    3    3    1    4    0.000210    0.000122
   -5    3    3    2    4   -0.001188    0.000667
   -5    3    3    3    4    0.000333    0.000132
   -5    3    3    4    4    0.000293    0.000006
   -5    3    3    5    4    0.001750    0.001702
   -5    3    3    6    4    0.000366    0.001126
[...]
    5    0   -3    2    1   -0.000255    0.000389
    5    0   -3    3    1    0.000450   -0.000047
    5    0   -3    4    1   -0.000660    0.000361
    5    0   -3    5    1    0.001339    0.000389
    5    0   -3    6    1    0.000040    0.000038
    5    0   -3    7    1    0.000037    0.000565
    5    0   -3    8    1    0.000189    0.000051
    5    0   -3    9    1   -0.000065   -0.000118
    5    0   -3   10    1   -0.001102   -0.000298
    5    0   -3    1    2    0.000672    0.001028
    5    0   -3    2    2   -0.001159   -0.000004
    5    0   -3    3    2   -0.001560   -0.001874
    5    0   -3    4    2    0.000190    0.000105
    5    0   -3    5    2   -0.000112   -0.000402
    5    0   -3    6    2   -0.000351    0.001830
    5    0   -3    7    2   -0.000221    0.000165
    5    0   -3    8    2    0.000056    0.000125
    5    0   -3    9    2   -0.000193    0.000407
    5    0   -3   10    2    0.000304    0.000923
    5    0   -3    1    3    0.000473    0.000066
    5    0   -3    2    3   -0.000299    0.000348
    5    0   -3    3    3   -0.001412   -0.000003
    5    0   -3    4    3   -0.000397    0.000158
    5    0   -3    5    3   -0.000330   -0.000132
    5    0   -3    6    3   -0.000161   -0.000182
    5    0   -3    7    3   -0.000066    0.001284
    5    0   -3    8    3    0.000181    0.000055
    5    0   -3    9    3   -0.000124   -0.000263
    5    0   -3   10    3    0.000163    0.000090
    5    0   -3    1    4    0.001079    0.000591
    5    0   -3    2    4    0.000889   -0.000488
    5    0   -3    3    4   -0.001890   -0.000729
    5    0   -3    4    4   -0.000395    0.000007
    5    0   -3    5    4   -0.000017   -0.000022
    5    0   -3    6    4    0.000119    0.000343
    5    0   -3    7    4   -0.000070    0.000141
    5    0   -3    8    4   -0.000366   -0.000312
    5    0   -3    9    4    0.000022    0.000499
    5    0   -3   10    4    0.000010    0.000000
    5    0   -3    1    5   -0.000205    0.000058
    5    0   -3    2    5    0.000374   -0.001227
    5    0   -3    3    5   -0.000669    0.000282
    5    0   -3    4    5   -0.000114    0.000105
    5    0   -3    5    5   -0.000410    0.000009
    5    0   -3    6    5    0.000383    0.000198
    5    0   -3    7    5    0.000259    0.000744
    5    0   -3    8    5    0.000601   -0.000041
    5    0   -3    9    5   -0.000400   -0.000366
    5    0   -3   10    5   -0.001079    0.000013
    5    0   -3    1    6    0.000260   -0.000232
    5    0   -3    2    6   -0.000218   -0.001102
    5    0   -3    3    6    0.000593   -0.000739
    5    0   -3    4    6   -0.000220    0.000674
    5    0   -3    5    6    0.000682   -0.000365
    5    0   -3    6    6   -0.001107    0.000005
    5    0   -3    7    6    0.001165    0.001103
    5    0   -3    8    6    0.001158   -0.000717
    5    0   -3    9    6   -0.000757   -0.000192
    5    0   -3   10    6   -0.000280    0.000154
    5    0   -3    1    7   -0.000016    0.000427
    5    0   -3    2    7    0.000686    0.000510
    5    0   -3    3    7   -0.000160   -0.002586
    5    0   -3    4    7    0.000046    0.000102
    5    0   -3    5    7   -0.000005    0.000051
    5    0   -3    6    7   -0.000007   -0.000004
    5    0   -3    7    7   -0.000866    0.000005
    5    0   -3    8    7    0.000227   -0.000820
    5    0   -3    9    7    0.000305   -0.000174
    5    0   -3   10    7   -0.000151    0.000404
    5    0   -3    1    8    0.000512   -0.000103
    5    0   -3    2    8    0.000157   -0.000400
    5    0   -3    3    8   -0.000502    0.000164
    5    0   -3    4    8    0.000624   -0.000522
    5    0   -3    5    8   -0.000195   -0.000020
    5    0   -3    6    8   -0.000232   -0.000152
    5    0   -3    7    8    0.000208    0.000759
    5    0   -3    8    8   -0.000001    0.000007
    5    0   -3    9    8   -0.000316   -0.000329
    5    0   -3   10    8   -0.000238   -0.000022
    5    0   -3    1    9   -0.001016    0.001638
    5    0   -3    2    9   -0.000239   -0.000515
    5    0   -3    3    9   -0.000404    0.000855
    5    0   -3    4    9    0.000022   -0.000460
    5    0   -3    5    9    0.000016   -0.000019
    5    0   -3    6    9    0.000177   -0.000052
    5    0   -3    7    9   -0.000685   -0.000374
    5    0   -3    8    9    0.000046   -0.000054
    5    0   -3    9    9   -0.000468    0.000004
    5    0   -3   10    9    0.000555   -0.000521
    5    0   -3    1   10    0.000442   -0.000118
    5    0   -3    2   10    0.000368   -0.001178
    5    0   -3    3   10   -0.000916    0.000381
    5    0   -3    4   10   -0.000007    0.000013
    5    0   -3    5   10    0.001165    0.000015
    5    0   -3    6   10   -0.000192   -0.000113
    5    0   -3    7   10    0.000521    0.001533
    5    0   -3    8   10   -0.001108    0.000067
    5    0   -3    9   10   -0.000356   -0.000330
    5    0   -3   10   10   -0.001339   -0.000004
    5    0   -2    1    1   -0.001469    0.000006
    5    0   -2    2    1   -0.000044    0.000068
    5    0   -2    3    1   -0.000156    0.000001
    5    0   -2    4    1    0.000255   -0.000140
    5    0   -2    5    1   -0.000390   -0.000115
    5    0   -2    6    1   -0.000177   -0.000171
    5    0   -2    7    1   -0.000194   -0.002931
    5    0   -2    8    1   -0.000078   -0.000008
    5    0   -2    9    1   -0.000672   -0.001093
    5    0   -2   10    1   -0.001218   -0.000323
    5    0   -2    1    2   -0.000823   -0.001283
    5    0   -2    2    2   -0.001466    0.000014
    5    0   -2    3    2   -0.000510   -0.000602
    5    0   -2    4    2   -0.000493   -0.000276
    5    0   -2    5    2    0.000716    0.002351
    5    0   -2    6    2   -0.000075    0.000480
    5    0   -2    7    2    0.000531   -0.000380
    5    0   -2    8    2    0.000058    0.000140
    5    0   -2    9    2   -0.000315    0.000694
    5    0   -2   10    2    0.000801    0.002470
    5    0   -2    1    3    0.001167    0.000140
    5    0   -2    2    3    0.000044   -0.000053
    5    0   -2    3    3   -0.001647    0.000005
    5    0   -2    4    3   -0.000225    0.000076
    5    0   -2    5    3    0.000009    0.000005
    5    0   -2    6    3   -0.000425   -0.000518
    5    0   -2    7    3   -0.000029    0.000564
    5    0   -2    8    3   -0.001096   -0.000372
    5    0   -2    9    3    0.000348    0.000731
    5    0   -2   10    3   -0.001102   -0.000450
    5    0   -2    1    4    0.000363    0.000201
    5    0   -2    2    4    0.000167   -0.000100
    5    0   -2    3    4   -0.001000   -0.000385
    5    0   -2    4    4   -0.000002    0.000010
    5    0   -2    5    4    0.000374    0.000355
    5    0   -2    6    4    0.000085    0.000220
    5    0   -2    7    4    0.000406   -0.000897
    5    0   -2    8    4    0.000021    0.000023
    5    0   -2    9    4   -0.000035   -0.000563
    5    0   -2   10    4    0.000614    0.000578
    5    0   -2    1    5   -0.000209    0.000067
    5    0   -2    2    5    0.000178   -0.000563
    5    0   -2    3    5   -0.000093    0.000033
    5    0   -2    4    5   -0.000383    0.000377
    5    0   -2    5    5   -0.000001    0.000008
    5    0   -2    6    5    0.000498    0.000271
    5    0   -2    7    5   -0.000438   -0.001262
    5    0   -2    8    5   -0.000205    0.000027
    5    0   -2    9    5   -0.000274   -0.000278
    5    0   -2   10    5   -0.000223   -0.000003
    5    0   -2    1    6    0.000924   -0.000884
    5    0   -2    2    6   -0.000077   -0.000452
    5    0   -2    3    6   -0.000249    0.000295
    5    0   -2    4    6    0.000166   -0.000517
    5    0   -2    5    6   -0.000320    0.000179
    5    0   -2    6    6   -0.001648    0.000002
    5    0   -2    7    6    0.000044    0.000038
    5    0   -2    8    6    0.001402   -0.000880
    5    0   -2    9    6    0.000186    0.000042
    5    0   -2   10    6   -0.000402    0.000233
    5    0   -2    1    7   -0.000088    0.001624
    5    0   -2    2    7   -0.000040   -0.000030
    5    0   -2    3    7    0.000001   -0.000233
    5    0   -2    4    7    0.000072    0.000188
    5    0   -2    5    7    0.000166   -0.000482
    5    0   -2    6    7   -0.000158    0.000118
    5    0   -2    7    7   -0.000847    0.000010
    5    0   -2    8    7    0.000119   -0.000466
    5    0   -2    9    7    0.000619   -0.000339
    5    0   -2   10    7   -0.000079    0.000204
    5    0   -2    1    8    0.000435   -0.000091
    5    0   -2    2    8    0.000012   -0.000019
    5    0   -2    3    8    0.000143   -0.000056
    5    0   -2    4    8    0.000314   -0.000234
    5    0   -2    5    8    0.000566    0.000040
    5    0   -2    6    8   -0.000590   -0.000362
    5    0   -2    7    8    0.000071    0.000207
    5    0   -2    8    8   -0.000456   -0.000002
    5    0   -2    9    8   -0.000145   -0.000183
    5    0   -2   10    8   -0.001353   -0.000086
    5    0   -2    1    9    0.000071   -0.000118
    5    0   -2    2    9   -0.000142   -0.000298
    5    0   -2    3    9   -0.000417    0.000911
    5    0   -2    4    9   -0.000006   -0.000209
    5    0   -2    5    9   -0.000025    0.000021
    5    0   -2    6    9   -0.001323    0.000340
    5    0   -2    7    9    0.000648    0.000342
    5    0   -2    8    9    0.000003   -0.000005
    5    0   -2    9    9   -0.000456   -0.000001
    5    0   -2   10    9    0.000034   -0.000034
    5    0   -2    1   10   -0.000331    0.000091
    5    0   -2    2   10    0.000394   -0.001238
    5    0   -2    3   10    0.001252   -0.000517
    5    0   -2    4   10    0.000571   -0.000543
    5    0   -2    5   10    0.000153   -0.000001
    5    0   -2    6   10    0.000451    0.000252
    5    0   -2    7   10   -0.000679   -0.001981
    5    0   -2    8   10    0.000784   -0.000044
    5    0   -2    9   10   -0.000581   -0.000530
    5    0   -2   10   10   -0.000846    0.000002
    5    1   -3    1    1    0.000276   -0.000006
    5    1   -3    2    1    0.000128   -0.000199
    5    1   -3    3    1   -0.000011   -0.000007
    5    1   -3    4    1    0.000735   -0.000405
    5    1   -3    5    1   -0.001707   -0.000488
    5    1   -3    6    1    0.000323    0.000327
    5    1   -3    7    1    0.000008    0.000171
    5    1   -3    8    1    0.001192    0.000246
    5    1   -3    9    1    0.000059    0.000105
    5    1   -3   10    1    0.001311    0.000356
    5    1   -3    1    2    0.000068    0.000115
    5    1   -3    2    2    0.000272   -0.000002
    5    1   -3    3    2    0.000425    0.000517
    5    1   -3    4    2   -0.000164   -0.000088
    5    1   -3    5    2    0.000006    0.000028
    5    1   -3    6    2    0.000009   -0.000063
    5    1   -3    7    2    0.000648   -0.000474
    5    1   -3    8    2    0.000163    0.000417
    5    1   -3    9    2   -0.000081    0.000164
    5    1   -3   10    2   -0.000070   -0.000221
    5    1   -3    1    3   -0.000167   -0.000022
    5    1   -3    2    3    0.000066   -0.000051
    5    1   -3    3    3    0.000292   -0.000004
    5    1   -3    4    3    0.000236   -0.000106
    5    1   -3    5    3    0.001079    0.000455
    5    1   -3    6    3    0.000610    0.000739
    5    1   -3    7    3    0.000024   -0.000312
    5    1   -3    8    3    0.001961    0.000660
    5    1   -3    9    3   -0.000221   -0.000471
    5    1   -3   10    3   -0.000018   -0.000012
    5    1   -3    1    4    0.000393    0.000201
    5    1   -3    2    4    0.001820   -0.001008
    5    1   -3    3    4   -0.000025   -0.000003
    5    1   -3    4    4    0.000076    0.000004
    5    1   -3    5    4   -0.000189   -0.000188
    5    1   -3    6    4    0.000359    0.001118
    5    1   -3    7    4   -0.000071    0.000127
    5    1   -3    8    4    0.000495    0.000425
    5    1   -3    9    4   -0.000008   -0.000014
    5    1   -3   10    4   -0.000254   -0.000251
    5    1   -3    1    5    0.000025   -0.000015
    5    1   -3    2    5    0.000008   -0.000032
    5    1   -3    3    5   -0.000229    0.000098
    5    1   -3    4    5   -0.000590    0.000556
    5    1   -3    5    5    0.000079    0.000006
    5    1   -3    6    5   -0.000647   -0.000339
    5    1   -3    7    5   -0.000458   -0.001344
    5    1   -3    8    5   -0.000005    0.000005
    5    1   -3    9    5   -0.000924   -0.000832
    5    1   -3   10    5    0.000736   -0.000015
    5    1   -3    1    6    0.000051   -0.000048
    5    1   -3    2    6    0.000015    0.000101
    5    1   -3    3    6    0.000452   -0.000561
    5    1   -3    4    6   -0.000442    0.001335
    5    1   -3    5    6   -0.000347    0.000186
    5    1   -3    6    6    0.000293   -0.000002
    5    1   -3    7    6   -0.000400   -0.000379
    5    1   -3    8    6   -0.000235    0.000152
    5    1   -3    9    6   -0.000021   -0.000004
    5    1   -3   10    6    0.000771   -0.000410
    5    1   -3    1    7    0.000059   -0.000872
    5    1   -3    2    7   -0.000331   -0.000248
    5    1   -3    3    7    0.000012    0.000216
    5    1   -3    4    7    0.000162    0.000350
    5    1   -3    5    7    0.000653   -0.001858
    5    1   -3    6    7   -0.000109    0.000105
    5    1   -3    7    7   -0.000097   -0.000002
    5    1   -3    8    7   -0.000088    0.000307
    5    1   -3    9    7   -0.000702    0.000382
    5    1   -3   10    7    0.000043   -0.000091
    5    1   -3    1    8   -0.001425    0.000283
    5    1   -3    2    8    0.000270   -0.000668
    5    1   -3    3    8   -0.000154    0.000043
    5    1   -3    4    8    0.000948   -0.000807
    5    1   -3    5    8    0.000015    0.000000
    5    1   -3    6    8    0.000192    0.000123
    5    1   -3    7    8   -0.000106   -0.000392
    5    1   -3    8    8    0.000025    0.000004
    5    1   -3    9    8   -0.000470   -0.000498
    5    1   -3   10    8    0.000413    0.000024
    5    1   -3    1    9    0.000038   -0.000019
    5    1   -3    2    9    0.000476    0.001030
    5    1   -3    3    9    0.000132   -0.000280
    5    1   -3    4    9   -0.000001   -0.000004
    5    1   -3    5    9   -0.000489    0.000431
    5    1   -3    6    9    0.001727   -0.000454
    5    1   -3    7    9   -0.000331   -0.000171
    5    1   -3    8    9   -0.000332    0.000344
    5    1   -3    9    9    0.000027    0.000002
    5    1   -3   10    9   -0.001448    0.001347
    5    1   -3    1   10   -0.000113    0.000033
    5    1   -3    2   10   -0.000079    0.000239
    5    1   -3    3   10    0.000675   -0.000271
    5    1   -3    4   10   -0.000260    0.000266
    5    1   -3    5   10   -0.000211   -0.000006
    5    1   -3    6   10    0.000120    0.000061
    5    1   -3    7   10    0.000138    0.000424
    5    1   -3    8   10   -0.000069    0.000011
    5    1   -3    9   10    0.001093    0.001015
    5    1   -3   10   10   -0.000094   -0.000005
    6   -2   -2    1    1    0.001620    0.000003
    6   -2   -2    2    1   -0.000393    0.000597
    6   -2   -2    3    1    0.000675   -0.000094
    6   -2   -2    4    1   -0.000563    0.000294
    6   -2   -2    5    1    0.000129    0.000027
    6   -2   -2    6    1   -0.000440   -0.000428
    6   -2   -2    7    1    0.000040    0.000676
    6   -2   -2    8    1   -0.000189   -0.000042
    6   -2   -2    9    1    0.000202    0.000359
    6   -2   -2   10    1   -0.000405   -0.000109
    6   -2   -2    1    2   -0.000506   -0.000770
    6   -2   -2    2    2    0.001632    0.000003
    6   -2   -2    3    2   -0.000689   -0.000815
    6   -2   -2    4    2   -0.000116   -0.000058
    6   -2   -2    5    2    0.000028    0.000138
    6   -2   -2    6    2   -0.000130    0.000668
    6   -2   -2    7    2    0.000021   -0.000012
    6   -2   -2    8    2   -0.000378   -0.000995
    6   -2   -2    9    2    0.000325   -0.000688
    6   -2   -2   10    2   -0.000149   -0.000454
    6   -2   -2    1    3   -0.000257   -0.000027
    6   -2   -2    2    3   -0.000638    0.000789
    6   -2   -2    3    3    0.001614    0.000000
    6   -2   -2    4    3    0.000352   -0.000131
    6   -2   -2    5    3   -0.001213   -0.000528
    6   -2   -2    6    3   -0.000079   -0.000099
    6   -2   -2    7    3   -0.000111    0.002060
    6   -2   -2    8    3   -0.000331   -0.000104
    6   -2   -2    9    3    0.000311    0.000662
    6   -2   -2   10    3   -0.001042   -0.000421
    6   -2   -2    1    4   -0.000748   -0.000403
    6   -2   -2    2    4   -0.000315    0.000163
    6   -2   -2    3    4   -0.000386   -0.000150
    6   -2   -2    4    4    0.001546   -0.000004
    6   -2   -2    5    4   -0.000283   -0.000273
    6   -2   -2    6    4   -0.000057   -0.000152
    6   -2   -2    7    4    0.000016   -0.000030
    6   -2   -2    8    4    0.000529    0.000454
    6   -2   -2    9    4    0.000020    0.000303
    6   -2   -2   10    4    0.000812    0.000777
    6   -2   -2    1    5    0.000145   -0.000048
    6   -2   -2    2    5   -0.000247    0.000815
    6   -2   -2    3    5    0.000680   -0.000285
    6   -2   -2    4    5   -0.000763    0.000731
    6   -2   -2    5    5    0.001551   -0.000004
    6   -2   -2    6    5    0.000363    0.000205
    6   -2   -2    7    5   -0.000079   -0.000214
    6   -2   -2    8    5   -0.000303    0.000024
    6   -2   -2    9    5   -0.001362   -0.001227
    6   -2   -2   10    5   -0.000237   -0.000009
    6   -2   -2    1    6   -0.000827    0.000803
    6   -2   -2    2    6    0.000061    0.000255
    6   -2   -2    3    6   -0.000057    0.000071
    6   -2   -2    4    6   -0.000058    0.000141
    6   -2   -2    5    6    0.000759   -0.000390
    6   -2   -2    6    6    0.001614   -0.000000
    6   -2   -2    7    6    0.000909    0.000841
    6   -2   -2    8    6    0.000342   -0.000210
    6   -2   -2    9    6   -0.000147   -0.000044
    6   -2   -2   10    6   -0.001005    0.000545
    6   -2   -2    1    7   -0.000054    0.001157
    6   -2   -2    2    7    0.000144    0.000103
    6   -2   -2    3    7    0.000030    0.000459
    6   -2   -2    4    7   -0.000180   -0.000395
    6   -2   -2    5    7   -0.000084    0.000229
    6   -2   -2    6    7    0.000597   -0.000578
    6   -2   -2    7    7    0.001344    0.000003
    6   -2   -2    8    7    0.000292   -0.001076
    6   -2   -2    9    7    0.000261   -0.000133
    6   -2   -2   10    7   -0.000243    0.000697
    6   -2   -2    1    8   -0.000190    0.000031
    6   -2   -2    2    8   -0.000373    0.000952
    6   -2   -2    3    8   -0.000133    0.000044
    6   -2   -2    4    8    0.001400   -0.001188
    6   -2   -2    5    8   -0.000312   -0.000025
    6   -2   -2    6    8   -0.000094   -0.000064
    6   -2   -2    7    8   -0.000186   -0.000664
    6   -2   -2    8    8    0.001547   -0.000003
    6   -2   -2    9    8   -0.000684   -0.000717
    6   -2   -2   10    8    0.000565    0.000035
    6   -2   -2    1    9   -0.000244    0.000396
    6   -2   -2    2    9   -0.000586   -0.001208
    6   -2   -2    3    9    0.000216   -0.000462
    6   -2   -2    4    9    0.000018   -0.000293
    6   -2   -2    5    9   -0.000517    0.000462
    6   -2   -2    6    9   -0.000125    0.000035
    6   -2   -2    7    9    0.000706    0.000389
    6   -2   -2    8    9   -0.000233    0.000240
    6   -2   -2    9    9    0.001552   -0.000002
    6   -2   -2   10    9    0.000200   -0.000192
    6   -2   -2    1   10   -0.000161    0.000045
    6   -2   -2    2   10    0.000612   -0.001952
    6   -2   -2    3   10   -0.001044    0.000425
    6   -2   -2    4   10   -0.000494    0.000459
    6   -2   -2    5   10   -0.000338    0.000007
    6   -2   -2    6   10    0.000597    0.000315
    6   -2   -2    7   10   -0.000308   -0.000892
    6   -2   -2    8   10   -0.000339    0.000000
    6   -2   -2    9   10    0.000174    0.000176
    6   -2   -2   10   10    0.001335    0.000004
